INSANE! Membrane UpperLeaflet>DPPC:DIPC:CHOL=20.0:65.0:15.0 LowerLeaflet>DPPC:DIPC:CHOL=20.0:65.0:15.0
71421
    1DPPC   NC3    1  14.925   8.728   7.293 -0.2886  0.0260 -0.3601
    1DPPC   PO4    2  14.750   9.094   7.310 -0.1570 -0.1674 -0.0856
    1DPPC   GL1    3  14.821   9.182   6.861  0.0833  0.3207  0.1639
    1DPPC   GL2    4  14.934   8.857   6.804 -0.1240 -0.2849 -0.4274
    1DPPC   C1A    5  14.753   9.181   6.479 -0.0277 -0.1133 -0.2329
    1DPPC   C2A    6  14.767   9.007   6.076  0.1543  0.2610 -0.2701
    1DPPC   C3A    7  14.711   9.098   5.744 -0.0043 -0.0297 -0.0461
    1DPPC   C4A    8  14.429   9.195   5.471  0.0630 -0.0712 -0.2231
    1DPPC   C1B    9  15.195   8.942   6.570 -0.0185 -0.1021  0.1697
    1DPPC   C2B   10  15.241   8.873   6.125  0.0209  0.2576 -0.0755
    1DPPC   C3B   11  15.281   8.755   5.682  0.1253  0.0259  0.1243
    1DPPC   C4B   12  15.317   8.683   5.224 -0.2131 -0.4309  0.0350
    1DPPC   NC3   13  12.800  21.579   6.556  0.0764  0.1637  0.2245
    1DPPC   PO4   14  12.823  21.168   6.782  0.3183  0.0669  0.0162
    1DPPC   GL1   15  12.899  21.153   6.328 -0.0235 -0.0787  0.3477
    1DPPC   GL2   16  13.118  21.206   6.222 -0.2828  0.0427  0.1479
    1DPPC   C1A   17  12.778  21.032   5.906 -0.1792 -0.0688  0.1089
    1DPPC   C2A   18  12.839  21.025   5.537 -0.2058 -0.3759  0.0517
    1DPPC   C3A   19  12.648  21.231   5.193 -0.2818 -0.0769  0.1684
    1DPPC   C4A   20  12.714  21.323   4.726  0.0103  0.1356  0.1511
    1DPPC   C1B   21  13.286  21.012   5.886  0.1036  0.1334  0.2385
    1DPPC   C2B   22  13.367  21.088   5.471  0.0468  0.0855 -0.1120
    1DPPC   C3B   23  13.521  20.756   5.147 -0.0378 -0.3197 -0.1549
    1DPPC   C4B   24  13.579  20.831   4.767 -0.0160  0.0615 -0.2131
    1DPPC   NC3   25  13.577  15.427   6.850 -0.1332 -0.1383  0.0171
    1DPPC   PO4   26  13.897  15.033   6.887 -0.0077 -0.0124 -0.0722
    1DPPC   GL1   27  13.914  15.021   6.471 -0.0083 -0.0897 -0.2811
    1DPPC   GL2   28  13.792  15.277   6.416  0.0199  0.2063 -0.0230
    1DPPC   C1A   29  14.048  15.028   6.058  0.2952 -0.1352 -0.0561
    1DPPC   C2A   30  13.990  15.319   5.779 -0.1556  0.0987 -0.0954
    1DPPC   C3A   31  14.159  15.227   5.459  0.1122  0.0609  0.1820
    1DPPC   C4A   32  14.096  15.347   5.006  0.1203  0.1255 -0.0040
    1DPPC   C1B   33  13.537  15.302   6.037  0.1961 -0.0184 -0.1619
    1DPPC   C2B   34  13.445  15.180   5.611  0.0173  0.1951 -0.1954
    1DPPC   C3B   35  13.339  15.135   5.227 -0.0855  0.0429 -0.1562
    1DPPC   C4B   36  13.418  15.067   4.789 -0.2805  0.1092 -0.0557
    1DPPC   NC3   37  16.860  14.547   6.864  0.0037  0.4018 -0.1003
    1DPPC   PO4   38  16.584  14.161   6.651  0.3442 -0.3872 -0.0098
    1DPPC   GL1   39  16.528  14.245   6.259  0.0259  0.2526 -0.0989
    1DPPC   GL2   40  16.441  14.563   6.309  0.0399  0.0873 -0.0970
    1DPPC   C1A   41  16.435  14.094   5.863  0.1637  0.1991 -0.2720
    1DPPC   C2A   42  16.420  14.051   5.477  0.2036 -0.2011 -0.1379
    1DPPC   C3A   43  16.492  13.846   5.074 -0.2730  0.1191 -0.0154
    1DPPC   C4A   44  16.726  13.846   4.634  0.0850  0.0721  0.1069
    1DPPC   C1B   45  16.417  14.602   5.884  0.0244 -0.1792 -0.0521
    1DPPC   C2B   46  16.461  14.709   5.484  0.1020  0.0282 -0.1474
    1DPPC   C3B   47  16.331  14.564   5.153 -0.0120  0.4087  0.3204
    1DPPC   C4B   48  16.149  14.237   5.075  0.1437 -0.1904  0.2313
    1DPPC   NC3   49  14.557  23.246   6.317  0.0083  0.1328 -0.0113
    1DPPC   PO4   50  14.594  22.810   6.354  0.1290  0.2507  0.0076
    1DPPC   GL1   51  14.353  22.871   5.976 -0.1538  0.4390 -0.0437
    1DPPC   GL2   52  14.511  23.124   5.833 -0.0781 -0.0820  0.1526
    1DPPC   C1A   53  14.332  22.671   5.645 -0.0193  0.2336 -0.1789
    1DPPC   C2A   54  14.222  22.409   5.307  0.0456 -0.1984 -0.2992
    1DPPC   C3A   55  13.907  22.501   4.973 -0.0817 -0.0577  0.1832
    1DPPC   C4A   56  13.675  22.590   4.674 -0.0597 -0.1469 -0.1330
    1DPPC   C1B   57  14.563  22.998   5.416 -0.2902 -0.2622 -0.0629
    1DPPC   C2B   58  14.498  22.883   5.065 -0.2093 -0.1478 -0.0379
    1DPPC   C3B   59  14.399  22.576   4.798 -0.0653 -0.3563 -0.0548
    1DPPC   C4B   60  14.329  22.169   4.877  0.0255 -0.0972 -0.1597
    1DPPC   NC3   61  19.366  19.524   7.514 -0.0587 -0.4654 -0.0347
    1DPPC   PO4   62  19.014  19.716   7.268 -0.1802  0.0404 -0.1199
    1DPPC   GL1   63  19.069  19.633   6.864 -0.0579 -0.0655  0.0909
    1DPPC   GL2   64  19.149  19.405   6.669  0.1514 -0.0441 -0.2558
    1DPPC   C1A   65  19.162  19.973   6.440  0.1495 -0.1141 -0.0434
    1DPPC   C2A   66  19.220  19.723   5.928  0.0969 -0.0529 -0.0572
    1DPPC   C3A   67  19.003  19.743   5.573  0.0679  0.0005 -0.0635
    1DPPC   C4A   68  18.995  20.082   5.229  0.2056  0.0648 -0.0643
    1DPPC   C1B   69  19.445  19.583   6.418 -0.2631 -0.0392 -0.0506
    1DPPC   C2B   70  19.856  19.748   6.171  0.1943  0.2178  0.1232
    1DPPC   C3B   71  19.759  19.868   5.748  0.0031  0.0570  0.1040
    1DPPC   C4B   72  19.405  20.066   5.500 -0.2022 -0.1379 -0.0178
    1DPPC   NC3   73  12.666   5.588   7.214 -0.0177  0.4134  0.3050
    1DPPC   PO4   74  12.429   5.262   7.144  0.0099  0.0542 -0.1874
    1DPPC   GL1   75  12.500   5.364   6.727  0.0628 -0.3265 -0.1431
    1DPPC   GL2   76  12.530   5.646   6.719  0.1463 -0.1264 -0.2472
    1DPPC   C1A   77  12.369   5.263   6.280 -0.0260 -0.1408 -0.0377
    1DPPC   C2A   78  12.252   5.178   5.891 -0.0184 -0.0421  0.0771
    1DPPC   C3A   79  12.229   5.240   5.418 -0.2283 -0.0582 -0.2162
    1DPPC   C4A   80  12.206   5.335   4.884  0.1790 -0.1473  0.0151
    1DPPC   C1B   81  12.672   5.695   6.292  0.0587  0.0850  0.0787
    1DPPC   C2B   82  12.738   5.917   5.918  0.2450  0.1307 -0.2756
    1DPPC   C3B   83  13.146   6.154   5.715  0.0534  0.0834  0.1087
    1DPPC   C4B   84  13.606   6.193   5.696 -0.0869 -0.0292 -0.1717
    1DPPC   NC3   85   8.019  11.601   6.958 -0.1883 -0.0472  0.0092
    1DPPC   PO4   86   7.722  11.987   6.955 -0.0002  0.0086  0.0334
    1DPPC   GL1   87   7.870  12.055   6.553  0.0411 -0.2121 -0.1256
    1DPPC   GL2   88   7.762  12.237   6.384 -0.3303  0.3533  0.2948
    1DPPC   C1A   89   8.202  11.973   6.203  0.0858 -0.2783  0.1203
    1DPPC   C2A   90   8.283  12.147   5.859  0.0646  0.1653 -0.4508
    1DPPC   C3A   91   8.437  12.188   5.487 -0.2088  0.2776  0.1677
    1DPPC   C4A   92   8.293  12.360   5.132 -0.0149 -0.5617  0.3162
    1DPPC   C1B   93   7.761  12.084   5.941 -0.0149 -0.2346  0.1847
    1DPPC   C2B   94   7.916  11.897   5.585 -0.0198  0.1826  0.1406
    1DPPC   C3B   95   8.018  11.977   5.233 -0.0216  0.0547  0.2488
    1DPPC   C4B   96   8.090  11.922   4.851  0.0447  0.1845  0.1007
    1DPPC   NC3   97  17.107   8.347   8.185 -0.1571  0.1516 -0.2313
    1DPPC   PO4   98  17.222   8.127   7.745  0.1410 -0.1927 -0.0310
    1DPPC   GL1   99  17.344   8.240   7.348  0.2876 -0.0005  0.1143
    1DPPC   GL2  100  17.558   8.462   7.360  0.2157  0.0828  0.3279
    1DPPC   C1A  101  17.419   8.216   6.936 -0.1052  0.2799  0.0139
    1DPPC   C2A  102  17.227   8.214   6.540 -0.4393 -0.0987  0.0241
    1DPPC   C3A  103  17.110   8.148   6.112  0.0399  0.1367  0.2711
    1DPPC   C4A  104  17.003   8.441   5.824  0.3484  0.1413 -0.1589
    1DPPC   C1B  105  17.133   8.570   7.084  0.0253 -0.2028  0.3020
    1DPPC   C2B  106  16.883   8.728   6.797  0.0108  0.0336  0.1224
    1DPPC   C3B  107  16.603   8.969   6.580  0.1304  0.1800  0.3216
    1DPPC   C4B  108  16.671   9.340   6.375  0.1445  0.0264 -0.0491
    1DPPC   NC3  109  26.134  10.005   6.526 -0.2386 -0.0487  0.1001
    1DPPC   PO4  110  25.804  10.109   6.376  0.3193  0.1845  0.0847
    1DPPC   GL1  111  25.907  10.018   6.000  0.0471 -0.1796  0.1871
    1DPPC   GL2  112  25.629  10.067   5.857  0.1000 -0.0810  0.0433
    1DPPC   C1A  113  26.216  10.003   5.585  0.5035 -0.1303  0.0994
    1DPPC   C2A  114  26.022   9.818   5.171 -0.0970 -0.1230 -0.2101
    1DPPC   C3A  115  26.014   9.950   4.689 -0.3535  0.1553  0.1428
    1DPPC   C4A  116  26.095  10.391   4.404 -0.1014  0.0134 -0.1479
    1DPPC   C1B  117  25.673  10.073   5.457  0.0941 -0.0382 -0.2008
    1DPPC   C2B  118  25.601  10.006   5.030  0.3057 -0.0796  0.0584
    1DPPC   C3B  119  25.564  10.203   4.578  0.0148 -0.3189 -0.0173
    1DPPC   C4B  120  25.273  10.160   4.196 -0.1243 -0.1283  0.0703
    1DPPC   NC3  121  15.903  14.388   7.533  0.3294  0.1740 -0.0241
    1DPPC   PO4  122  15.753  14.059   7.208  0.2494 -0.0635  0.1919
    1DPPC   GL1  123  15.757  14.042   6.677  0.0769 -0.0611  0.2006
    1DPPC   GL2  124  16.062  14.045   6.466  0.3416  0.2137 -0.0751
    1DPPC   C1A  125  15.568  14.001   6.352 -0.3536 -0.1966 -0.0760
    1DPPC   C2A  126  15.585  14.099   5.959 -0.1169  0.2041  0.1441
    1DPPC   C3A  127  15.641  14.092   5.461  0.1083  0.2420 -0.0751
    1DPPC   C4A  128  15.698  14.037   5.031  0.0118  0.0335 -0.0079
    1DPPC   C1B  129  16.006  13.851   6.155 -0.0543 -0.1621 -0.0742
    1DPPC   C2B  130  16.034  13.835   5.673  0.0415 -0.2410  0.0192
    1DPPC   C3B  131  16.028  13.779   5.312  0.0517  0.1169  0.1986
    1DPPC   C4B  132  16.049  13.774   4.868 -0.0495  0.0666 -0.2400
    1DPPC   NC3  133  13.660  14.658   7.086 -0.0144 -0.1215 -0.1123
    1DPPC   PO4  134  13.990  14.384   7.184  0.2520  0.3546 -0.0775
    1DPPC   GL1  135  13.928  14.242   6.764 -0.1037 -0.1181  0.1743
    1DPPC   GL2  136  13.849  14.544   6.677  0.3790 -0.0547 -0.3997
    1DPPC   C1A  137  13.828  14.009   6.453  0.0502 -0.0967  0.1787
    1DPPC   C2A  138  13.710  13.811   6.158  0.0660  0.1194  0.1881
    1DPPC   C3A  139  13.712  13.802   5.786  0.1270  0.0217  0.1689
    1DPPC   C4A  140  13.810  13.800   5.337  0.3704 -0.0428  0.3932
    1DPPC   C1B  141  13.873  14.573   6.276 -0.0715 -0.1131 -0.0205
    1DPPC   C2B  142  13.857  14.664   5.838 -0.1221 -0.2169  0.0664
    1DPPC   C3B  143  13.891  14.823   5.460 -0.0754  0.1938  0.1081
    1DPPC   C4B  144  13.767  15.032   5.102  0.2062 -0.2290 -0.3199
    1DPPC   NC3  145  12.388  20.234   6.752  0.0654  0.1792 -0.2357
    1DPPC   PO4  146  12.710  20.645   6.779 -0.0714  0.3603  0.1189
    1DPPC   GL1  147  12.604  20.596   6.362 -0.2993 -0.1491  0.0383
    1DPPC   GL2  148  12.654  20.286   6.397  0.0476 -0.1492 -0.2711
    1DPPC   C1A  149  12.448  20.669   5.991  0.1761  0.0173 -0.0087
    1DPPC   C2A  150  12.206  20.430   5.747 -0.1038  0.3786  0.6571
    1DPPC   C3A  151  12.161  20.293   5.427  0.2489  0.2672  0.4073
    1DPPC   C4A  152  12.417  20.290   5.158 -0.1839  0.3378 -0.0533
    1DPPC   C1B  153  12.600  20.188   6.070 -0.4924 -0.1304 -0.0789
    1DPPC   C2B  154  12.639  20.191   5.698 -0.1977  0.2295  0.3665
    1DPPC   C3B  155  12.937  20.144   5.329  0.1710  0.1222  0.1481
    1DPPC   C4B  156  13.087  20.351   4.958 -0.0301 -0.2375 -0.0162
    1DPPC   NC3  157  12.431  10.115   7.360  0.2572  0.3217 -0.0140
    1DPPC   PO4  158  12.643  10.448   7.192  0.0364  0.1092 -0.4160
    1DPPC   GL1  159  12.525  10.101   6.877  0.3418 -0.2230  0.1309
    1DPPC   GL2  160  12.435   9.776   6.941  0.2080 -0.1932  0.3714
    1DPPC   C1A  161  12.671  10.010   6.539  0.0043  0.3676 -0.2970
    1DPPC   C2A  162  12.610   9.893   6.109  0.1658 -0.0568  0.0574
    1DPPC   C3A  163  12.779  10.039   5.575 -0.0171 -0.0737 -0.1205
    1DPPC   C4A  164  13.076  10.037   5.217 -0.0613 -0.1664  0.1315
    1DPPC   C1B  165  12.154   9.950   6.568 -0.3408 -0.1702 -0.1938
    1DPPC   C2B  166  11.973   9.937   6.162  0.0994 -0.1265 -0.3775
    1DPPC   C3B  167  11.806   9.908   5.719 -0.1270 -0.1025 -0.0389
    1DPPC   C4B  168  11.523   9.976   5.310  0.2007  0.0944  0.2073
    1DPPC   NC3  169  13.593  13.982   6.989  0.0202  0.0904 -0.0111
    1DPPC   PO4  170  13.394  13.588   6.999  0.2458  0.1079  0.2757
    1DPPC   GL1  171  13.387  13.372   6.625  0.3792 -0.1622 -0.0598
    1DPPC   GL2  172  13.112  13.245   6.527 -0.2142 -0.3693 -0.2602
    1DPPC   C1A  173  13.578  13.361   6.252 -0.0976 -0.1047  0.0335
    1DPPC   C2A  174  13.571  13.344   5.906 -0.1073  0.1205 -0.0877
    1DPPC   C3A  175  13.659  13.276   5.501  0.0555 -0.0435 -0.0042
    1DPPC   C4A  176  13.755  13.364   5.037 -0.2290 -0.0869  0.1422
    1DPPC   C1B  177  13.137  13.212   6.138  0.0212 -0.1431  0.0209
    1DPPC   C2B  178  13.153  13.177   5.694 -0.0831 -0.0110  0.0121
    1DPPC   C3B  179  13.177  13.167   5.278 -0.0987 -0.2419  0.1083
    1DPPC   C4B  180  13.336  13.068   4.856  0.1532 -0.1061 -0.1866
    1DPPC   NC3  181  14.013  16.946   7.188  0.1441  0.0006 -0.0543
    1DPPC   PO4  182  13.612  16.820   7.085  0.0229  0.0342 -0.0232
    1DPPC   GL1  183  13.514  16.921   6.681 -0.0705 -0.2022 -0.1080
    1DPPC   GL2  184  13.606  17.160   6.468 -0.0621  0.2876 -0.0574
    1DPPC   C1A  185  13.603  16.737   6.220  0.0941  0.3295 -0.1445
    1DPPC   C2A  186  13.763  16.667   5.820  0.0579 -0.0466 -0.0005
    1DPPC   C3A  187  13.715  16.599   5.419 -0.0194 -0.0192  0.0264
    1DPPC   C4A  188  13.921  16.448   5.016  0.0114  0.0264 -0.2974
    1DPPC   C1B  189  13.741  17.180   6.006  0.2345  0.1617 -0.1394
    1DPPC   C2B  190  13.692  17.092   5.541 -0.2423 -0.3312  0.0026
    1DPPC   C3B  191  13.506  17.064   5.257 -0.0265  0.3092  0.1312
    1DPPC   C4B  192  13.449  17.114   4.819  0.0685 -0.0971 -0.1109
    1DPPC   NC3  193  11.295  18.262   7.127 -0.0390  0.0715  0.0331
    1DPPC   PO4  194  11.615  18.104   6.913  0.0841  0.1278  0.0758
    1DPPC   GL1  195  11.396  18.233   6.595 -0.2736 -0.0230  0.4034
    1DPPC   GL2  196  11.249  18.480   6.690 -0.0264 -0.0728  0.0143
    1DPPC   C1A  197  11.562  18.232   6.140  0.0751  0.4204 -0.1954
    1DPPC   C2A  198  11.577  18.090   5.720  0.0483 -0.2016  0.0455
    1DPPC   C3A  199  11.780  18.049   5.331 -0.0417 -0.0610  0.0023
    1DPPC   C4A  200  11.915  18.112   4.856  0.3942 -0.2197  0.1327
    1DPPC   C1B  201  11.265  18.646   6.332 -0.1101  0.0022 -0.0725
    1DPPC   C2B  202  11.262  18.560   5.870 -0.1929  0.0358  0.0813
    1DPPC   C3B  203  11.409  18.447   5.421 -0.2261  0.0487 -0.0829
    1DPPC   C4B  204  11.614  18.447   5.097 -0.3525  0.2934 -0.0732
    1DPPC   NC3  205   0.174  14.537   5.690 -0.0920  0.2525  0.0369
    1DPPC   PO4  206  -0.313  14.386   5.714  0.2188 -0.2444  0.1242
    1DPPC   GL1  207  -0.491  14.257   5.374  0.1949  0.0015  0.1143
    1DPPC   GL2  208  -0.345  14.547   5.200 -0.0449  0.0862 -0.2675
    1DPPC   C1A  209  -0.628  13.971   5.158  0.3737 -0.2987  0.3872
    1DPPC   C2A  210  -0.875  13.877   4.702  0.0365  0.1406  0.3108
    1DPPC   C3A  211  -0.827  13.940   4.299  0.1185 -0.2842 -0.0553
    1DPPC   C4A  212  -0.945  14.266   4.119  0.1480  0.2215  0.4307
    1DPPC   C1B  213  -0.536  14.403   4.849  0.0266  0.0752 -0.0725
    1DPPC   C2B  214  -0.401  14.049   4.659 -0.1020  0.0833 -0.0060
    1DPPC   C3B  215  -0.472  13.620   4.616 -0.0695 -0.0701 -0.0095
    1DPPC   C4B  216  -0.726  13.329   4.752 -0.2772  0.1057 -0.1322
    1DPPC   NC3  217   8.004  15.064   6.556  0.1566  0.5097 -0.0178
    1DPPC   PO4  218   8.461  15.102   6.637 -0.1083 -0.0502 -0.1409
    1DPPC   GL1  219   8.373  15.092   6.176  0.1129 -0.1617 -0.1108
    1DPPC   GL2  220   8.246  15.376   6.018  0.0787 -0.0195 -0.2124
    1DPPC   C1A  221   8.296  14.841   5.960 -0.0639  0.2351  0.4465
    1DPPC   C2A  222   8.401  14.843   5.557  0.1069  0.1406  0.1423
    1DPPC   C3A  223   8.526  14.798   5.051  0.0855 -0.0294  0.0709
    1DPPC   C4A  224   8.454  14.791   4.630  0.0486 -0.0388 -0.2966
    1DPPC   C1B  225   8.357  15.282   5.653 -0.2496 -0.0514  0.1075
    1DPPC   C2B  226   8.365  15.310   5.223  0.4278 -0.0735 -0.1587
    1DPPC   C3B  227   8.297  15.320   4.765  0.0811 -0.0784  0.1544
    1DPPC   C4B  228   8.198  15.317   4.311  0.0831  0.0362  0.2180
    1DPPC   NC3  229  21.423  17.288   7.492 -0.1817 -0.3174 -0.1723
    1DPPC   PO4  230  21.214  17.402   7.085 -0.0421  0.2545 -0.1862
    1DPPC   GL1  231  21.091  17.202   6.735 -0.0788  0.1670  0.1672
    1DPPC   GL2  232  21.359  16.945   6.530  0.1860 -0.3013  0.0207
    1DPPC   C1A  233  20.920  17.218   6.341 -0.0299  0.1624 -0.2270
    1DPPC   C2A  234  20.706  17.294   6.010  0.0243 -0.0315 -0.0618
    1DPPC   C3A  235  20.581  17.404   5.671  0.0190 -0.0827  0.1403
    1DPPC   C4A  236  20.391  17.541   5.269  0.2956  0.1738  0.2484
    1DPPC   C1B  237  21.286  16.946   6.065 -0.1020 -0.2587 -0.1050
    1DPPC   C2B  238  21.059  16.998   5.739 -0.0056  0.0245  0.0587
    1DPPC   C3B  239  21.142  16.884   5.336  0.0858 -0.1577  0.0927
    1DPPC   C4B  240  21.057  16.739   5.058  0.1755 -0.0856  0.1676
    1DPPC   NC3  241   9.294  12.109   6.727  0.0972 -0.0386 -0.1081
    1DPPC   PO4  242   9.294  11.629   6.695  0.0197 -0.1479  0.0763
    1DPPC   GL1  243   9.425  11.578   6.387 -0.0727 -0.0617 -0.0115
    1DPPC   GL2  244   9.188  11.460   6.232 -0.0148  0.1619  0.2242
    1DPPC   C1A  245   9.865  11.651   6.138 -0.1407 -0.0512  0.0877
    1DPPC   C2A  246   9.921  11.419   5.687  0.0039  0.2966  0.2444
    1DPPC   C3A  247   9.730  11.189   5.317 -0.2096 -0.0376  0.2078
    1DPPC   C4A  248   9.366  10.871   5.235 -0.0249 -0.1835 -0.1147
    1DPPC   C1B  249   8.945  11.387   5.891  0.0523 -0.2126 -0.0774
    1DPPC   C2B  250   8.846  11.363   5.507  0.1308  0.1021  0.2043
    1DPPC   C3B  251   8.898  11.259   5.109 -0.0374  0.1771  0.0101
    1DPPC   C4B  252   8.865  11.351   4.634  0.1813  0.0697 -0.1163
    1DPPC   NC3  253   9.724  14.287   7.312  0.0777 -0.0765 -0.2055
    1DPPC   PO4  254   9.959  13.937   6.992  0.1951  0.0327 -0.1215
    1DPPC   GL1  255   9.962  14.162   6.476  0.2982  0.0898  0.1563
    1DPPC   GL2  256  10.249  14.194   6.385 -0.0308 -0.2489 -0.1073
    1DPPC   C1A  257   9.765  14.212   6.067 -0.3214 -0.0195  0.2194
    1DPPC   C2A  258   9.880  14.282   5.683  0.0853  0.2369  0.1582
    1DPPC   C3A  259   9.896  14.305   5.190  0.1290  0.0103 -0.1484
    1DPPC   C4A  260   9.869  14.154   4.866 -0.1539 -0.0470  0.1180
    1DPPC   C1B  261  10.341  14.049   6.035  0.1413  0.1689 -0.0904
    1DPPC   C2B  262  10.298  14.075   5.574 -0.1380  0.0335 -0.3152
    1DPPC   C3B  263  10.284  14.055   5.125  0.0107 -0.2049 -0.3919
    1DPPC   C4B  264  10.264  13.867   4.765 -0.0965  0.0901  0.2750
    1DPPC   NC3  265  17.476  11.423   6.918 -0.0412  0.0085  0.1657
    1DPPC   PO4  266  17.841  11.623   6.918  0.0781  0.4936  0.1135
    1DPPC   GL1  267  17.783  11.862   6.603 -0.0303  0.0863  0.2615
    1DPPC   GL2  268  17.792  11.556   6.366  0.1855  0.3583 -0.1198
    1DPPC   C1A  269  17.784  12.192   6.348  0.3047  0.0827  0.1618
    1DPPC   C2A  270  17.733  12.182   5.853  0.0715 -0.1617  0.1480
    1DPPC   C3A  271  17.786  12.432   5.533  0.0858  0.1788 -0.0674
    1DPPC   C4A  272  17.607  12.767   5.225 -0.0361  0.3227  0.4629
    1DPPC   C1B  273  17.696  11.636   6.025  0.0383 -0.1354 -0.1258
    1DPPC   C2B  274  17.570  11.646   5.568  0.0502 -0.1612 -0.0584
    1DPPC   C3B  275  17.507  11.689   5.169 -0.2551 -0.0707  0.2353
    1DPPC   C4B  276  17.414  11.472   4.825  0.0222 -0.1312  0.1485
    1DPPC   NC3  277  16.945  22.272   6.685 -0.1476 -0.1698 -0.1671
    1DPPC   PO4  278  17.434  22.253   6.746 -0.1213  0.0695 -0.0779
    1DPPC   GL1  279  17.484  22.123   6.387  0.0108 -0.0506 -0.0615
    1DPPC   GL2  280  17.176  22.135   6.266  0.1888  0.0679 -0.0570
    1DPPC   C1A  281  17.580  22.166   5.946  0.0275  0.0549 -0.1898
    1DPPC   C2A  282  17.491  22.426   5.546  0.1715  0.3128  0.2148
    1DPPC   C3A  283  17.366  22.572   5.203 -0.3636 -0.2219  0.0170
    1DPPC   C4A  284  17.399  22.585   4.830 -0.2132 -0.0318  0.1731
    1DPPC   C1B  285  17.083  21.966   5.860 -0.0260  0.0723  0.1126
    1DPPC   C2B  286  17.203  22.025   5.409 -0.1363 -0.1292 -0.0493
    1DPPC   C3B  287  17.233  22.115   4.969  0.1610 -0.1437  0.0556
    1DPPC   C4B  288  17.082  22.220   4.550  0.1828 -0.4679  0.2172
    1DPPC   NC3  289   2.895   7.127   6.534  0.1232  0.0134  0.0423
    1DPPC   PO4  290   2.596   7.293   6.148  0.1738 -0.1758  0.0764
    1DPPC   GL1  291   2.526   7.323   5.737  0.1958  0.1436  0.3803
    1DPPC   GL2  292   2.716   6.986   5.608 -0.1725  0.4218 -0.0859
    1DPPC   C1A  293   2.687   7.500   5.306  0.1721  0.3120  0.0154
    1DPPC   C2A  294   2.941   7.359   4.905  0.1773  0.0098  0.0163
    1DPPC   C3A  295   2.817   7.390   4.461 -0.3588 -0.0889  0.2939
    1DPPC   C4A  296   2.547   7.745   4.247 -0.1797 -0.0023 -0.1340
    1DPPC   C1B  297   2.778   6.959   5.162 -0.3168 -0.0699 -0.1403
    1DPPC   C2B  298   2.748   6.933   4.702 -0.2078 -0.0808  0.0552
    1DPPC   C3B  299   2.928   6.982   4.245 -0.0305 -0.2128 -0.1383
    1DPPC   C4B  300   3.058   6.675   3.868 -0.1204  0.4158 -0.0321
    1DPPC   NC3  301  12.528  18.989   7.011  0.0380  0.1160  0.0791
    1DPPC   PO4  302  12.308  18.698   6.764  0.3952  0.0243  0.0410
    1DPPC   GL1  303  12.555  18.452   6.526 -0.0981  0.1308 -0.2202
    1DPPC   GL2  304  12.839  18.478   6.633  0.0581  0.2753 -0.0900
    1DPPC   C1A  305  12.437  18.066   6.311 -0.1647 -0.0714 -0.0657
    1DPPC   C2A  306  12.460  17.764   6.075 -0.3099  0.0721 -0.0082
    1DPPC   C3A  307  12.533  17.725   5.702  0.1467  0.2523  0.0685
    1DPPC   C4A  308  12.507  17.937   5.400 -0.3342  0.2858 -0.0771
    1DPPC   C1B  309  12.764  18.581   6.146  0.0575  0.0890  0.1798
    1DPPC   C2B  310  12.968  18.665   5.780 -0.0771 -0.3351  0.1857
    1DPPC   C3B  311  13.162  18.663   5.348  0.1480  0.1043 -0.1556
    1DPPC   C4B  312  13.258  18.396   4.960 -0.0267  0.0277  0.0170
    1DPPC   NC3  313   4.879  26.270   6.868  0.1000  0.0527  0.0703
    1DPPC   PO4  314   4.980  26.179   6.392 -0.1595  0.0592  0.0711
    1DPPC   GL1  315   4.879  26.225   5.953  0.0740 -0.3898  0.1377
    1DPPC   GL2  316   4.687  26.448   6.044  0.1988 -0.1067  0.0811
    1DPPC   C1A  317   5.144  26.475   5.668 -0.1453  0.3676 -0.0599
    1DPPC   C2A  318   5.355  26.686   5.448  0.0467 -0.0936  0.3698
    1DPPC   C3A  319   5.677  26.603   5.133 -0.4113 -0.0364 -0.1448
    1DPPC   C4A  320   5.664  26.765   4.795 -0.1214 -0.2882  0.0398
    1DPPC   C1B  321   4.606  26.507   5.591 -0.2997 -0.0483 -0.1097
    1DPPC   C2B  322   4.417  26.432   5.150  0.0974 -0.1998  0.1197
    1DPPC   C3B  323   4.193  26.149   4.945  0.0844  0.0373  0.0710
    1DPPC   C4B  324   3.893  25.830   4.726  0.2898  0.2547 -0.3365
    1DPPC   NC3  325  13.980  21.095   7.234  0.3402  0.0828 -0.0567
    1DPPC   PO4  326  13.742  21.043   6.849  0.1069 -0.1529 -0.1109
    1DPPC   GL1  327  13.714  21.005   6.425  0.0203 -0.0051 -0.1763
    1DPPC   GL2  328  13.406  20.870   6.433 -0.0497  0.1446 -0.1579
    1DPPC   C1A  329  13.832  21.086   5.957  0.0969 -0.4126  0.2476
    1DPPC   C2A  330  13.875  21.034   5.504  0.0846  0.0837 -0.0464
    1DPPC   C3A  331  13.957  20.776   5.024  0.1060  0.0262 -0.0729
    1DPPC   C4A  332  13.840  20.371   4.903 -0.1136 -0.0160 -0.2292
    1DPPC   C1B  333  13.130  20.683   6.225 -0.1124  0.0138  0.2289
    1DPPC   C2B  334  12.934  20.540   5.881  0.1456  0.1415  0.0586
    1DPPC   C3B  335  12.585  20.615   5.504 -0.3761  0.0481  0.0701
    1DPPC   C4B  336  12.713  20.673   5.164  0.0417  0.1742  0.0610
    1DPPC   NC3  337  13.148  14.761   7.016  0.1393 -0.0350  0.0042
    1DPPC   PO4  338  13.097  15.249   6.945  0.1318  0.1862  0.2572
    1DPPC   GL1  339  12.917  15.155   6.604 -0.4401 -0.1167  0.2898
    1DPPC   GL2  340  12.704  14.807   6.603  0.1172  0.1552 -0.0944
    1DPPC   C1A  341  12.831  15.354   6.269 -0.4018  0.0159  0.0692
    1DPPC   C2A  342  13.032  15.260   5.939 -0.2194  0.0131  0.0036
    1DPPC   C3A  343  12.934  15.297   5.530 -0.2030 -0.0944 -0.2233
    1DPPC   C4A  344  12.893  15.347   5.078  0.1165 -0.1056  0.0439
    1DPPC   C1B  345  12.663  14.893   6.198  0.0204  0.2004 -0.2940
    1DPPC   C2B  346  12.738  14.890   5.774 -0.0885 -0.0371  0.2600
    1DPPC   C3B  347  12.964  14.821   5.354  0.2023  0.0017  0.2830
    1DPPC   C4B  348  12.993  14.856   4.946 -0.2120  0.2176 -0.0350
    1DPPC   NC3  349  26.327  18.989   6.491 -0.1078 -0.1606 -0.0289
    1DPPC   PO4  350  25.961  19.237   6.425 -0.0464 -0.0244 -0.0217
    1DPPC   GL1  351  25.681  19.359   6.161 -0.0727 -0.4390  0.0170
    1DPPC   GL2  352  25.611  19.156   5.967  0.0680 -0.1746  0.2866
    1DPPC   C1A  353  25.912  19.500   5.823 -0.1988 -0.0064  0.1147
    1DPPC   C2A  354  25.816  19.648   5.373 -0.2838 -0.0796 -0.0520
    1DPPC   C3A  355  25.765  19.821   5.000  0.2935 -0.1709  0.1875
    1DPPC   C4A  356  25.884  20.117   4.711  0.1467  0.0173 -0.1402
    1DPPC   C1B  357  25.657  19.177   5.505 -0.0383  0.0047  0.0394
    1DPPC   C2B  358  25.509  19.352   5.110 -0.0979  0.0269 -0.0048
    1DPPC   C3B  359  25.251  19.193   4.736  0.0140 -0.3981 -0.1283
    1DPPC   C4B  360  24.862  19.213   4.590 -0.1689  0.0654 -0.3452
    1DPPC   NC3  361  11.170  14.724   7.476  0.1531 -0.1565 -0.1360
    1DPPC   PO4  362  11.086  14.782   7.096  0.2617  0.1349  0.0859
    1DPPC   GL1  363  11.087  14.928   6.679  0.0301 -0.0797  0.1614
    1DPPC   GL2  364  11.286  15.173   6.581  0.2634  0.1119 -0.2887
    1DPPC   C1A  365  11.093  14.835   6.208  0.0603  0.0541  0.0020
    1DPPC   C2A  366  11.048  14.653   5.851 -0.1910 -0.3808  0.1832
    1DPPC   C3A  367  11.122  14.680   5.396 -0.0143 -0.0354 -0.2063
    1DPPC   C4A  368  11.322  14.741   5.029  0.1118 -0.3836 -0.1410
    1DPPC   C1B  369  11.517  15.067   6.166  0.3043  0.0224  0.2961
    1DPPC   C2B  370  11.590  14.960   5.718 -0.0223 -0.3365 -0.0254
    1DPPC   C3B  371  11.676  14.864   5.302 -0.2231  0.0606  0.0017
    1DPPC   C4B  372  11.887  14.719   5.004  0.0130 -0.0449  0.2351
    1DPPC   NC3  373  14.348  12.894   7.588 -0.1696  0.1035 -0.0308
    1DPPC   PO4  374  14.427  12.469   7.431 -0.0647  0.0285 -0.0565
    1DPPC   GL1  375  14.398  12.324   6.991 -0.1439 -0.1584 -0.1243
    1DPPC   GL2  376  14.110  12.161   6.867  0.1135  0.1297 -0.1082
    1DPPC   C1A  377  14.717  12.173   6.594 -0.0284  0.0084  0.0618
    1DPPC   C2A  378  14.710  11.958   6.258  0.2249  0.0539  0.2062
    1DPPC   C3A  379  14.712  11.897   5.756 -0.3089  0.2580 -0.0763
    1DPPC   C4A  380  14.670  11.922   5.273 -0.1594 -0.0625  0.1395
    1DPPC   C1B  381  14.205  12.089   6.466  0.1124  0.1736 -0.0922
    1DPPC   C2B  382  14.214  12.034   6.059  0.1402  0.0958  0.1981
    1DPPC   C3B  383  14.252  12.040   5.619 -0.0557 -0.1419 -0.2666
    1DPPC   C4B  384  14.247  12.140   5.276 -0.1978  0.0721  0.0828
    1DPPC   NC3  385  19.492  15.733   7.641  0.0484  0.2448  0.3600
    1DPPC   PO4  386  19.783  15.960   7.348  0.0834  0.4247 -0.0431
    1DPPC   GL1  387  19.857  15.974   6.878  0.1932 -0.0461 -0.5478
    1DPPC   GL2  388  19.806  15.708   6.690  0.1000 -0.1340 -0.0213
    1DPPC   C1A  389  20.028  16.126   6.420 -0.1026 -0.1063  0.2602
    1DPPC   C2A  390  20.063  15.989   6.018  0.2215  0.0470 -0.0664
    1DPPC   C3A  391  20.003  16.071   5.579 -0.2864 -0.2952  0.0373
    1DPPC   C4A  392  20.212  16.028   5.229  0.2093  0.1042 -0.0660
    1DPPC   C1B  393  19.648  15.817   6.253  0.1930  0.2519  0.3426
    1DPPC   C2B  394  19.645  15.789   5.869  0.1130 -0.0843  0.1940
    1DPPC   C3B  395  19.609  15.778   5.386  0.2143 -0.1872 -0.1522
    1DPPC   C4B  396  19.830  15.834   5.015 -0.0372 -0.1451 -0.0158
    1DPPC   NC3  397  15.955  15.154   7.422  0.1560 -0.0631 -0.1162
    1DPPC   PO4  398  15.817  15.124   7.004 -0.0279  0.1073 -0.3015
    1DPPC   GL1  399  15.799  15.309   6.675  0.2145 -0.1115 -0.3261
    1DPPC   GL2  400  16.007  15.550   6.476  0.1797 -0.0535  0.2585
    1DPPC   C1A  401  15.609  15.391   6.222 -0.0653  0.0915 -0.1730
    1DPPC   C2A  402  15.646  15.508   5.763  0.0253  0.2875  0.4232
    1DPPC   C3A  403  15.779  15.526   5.421 -0.0891  0.0823  0.3257
    1DPPC   C4A  404  15.723  15.455   4.948  0.0771 -0.0134 -0.0837
    1DPPC   C1B  405  16.073  15.620   6.028 -0.0971 -0.0194  0.1154
    1DPPC   C2B  406  16.243  15.634   5.568 -0.3562  0.0020  0.3224
    1DPPC   C3B  407  16.189  15.482   5.174 -0.0771 -0.3030 -0.0104
    1DPPC   C4B  408  16.286  15.349   4.783 -0.0073 -0.0199 -0.2497
    1DPPC   NC3  409  13.092  15.886   7.409 -0.1487 -0.0705  0.0102
    1DPPC   PO4  410  13.250  15.881   6.963 -0.2173  0.0871  0.0328
    1DPPC   GL1  411  13.205  15.708   6.577 -0.3398  0.0620 -0.0519
    1DPPC   GL2  412  13.315  15.403   6.435 -0.4091 -0.2304  0.0069
    1DPPC   C1A  413  13.111  15.720   6.135  0.0433  0.1105  0.0122
    1DPPC   C2A  414  13.251  15.655   5.698  0.0858 -0.1316 -0.1416
    1DPPC   C3A  415  13.244  15.735   5.316 -0.2337 -0.2054 -0.2169
    1DPPC   C4A  416  13.143  15.820   4.815 -0.2345 -0.4581 -0.0240
    1DPPC   C1B  417  13.624  15.719   6.271 -0.0439  0.0430  0.0647
    1DPPC   C2B  418  13.735  15.731   5.809  0.0399 -0.3669 -0.1003
    1DPPC   C3B  419  13.757  15.565   5.373  0.3642 -0.0714  0.0087
    1DPPC   C4B  420  13.601  15.537   4.944 -0.4260 -0.1260 -0.3172
    1DPPC   NC3  421  11.238  16.026   7.311  0.1021 -0.2671 -0.3276
    1DPPC   PO4  422  11.024  15.657   7.026  0.0910 -0.0079 -0.1858
    1DPPC   GL1  423  11.129  15.597   6.680 -0.1479 -0.1298 -0.2792
    1DPPC   GL2  424  10.875  15.415   6.475 -0.1604 -0.3077  0.2172
    1DPPC   C1A  425  11.447  15.532   6.315  0.1015 -0.2995 -0.0070
    1DPPC   C2A  426  11.486  15.575   5.851 -0.1569  0.1589  0.1023
    1DPPC   C3A  427  11.501  15.353   5.410 -0.2967 -0.1893 -0.0906
    1DPPC   C4A  428  11.543  15.240   4.923 -0.1522 -0.2888  0.0055
    1DPPC   C1B  429  11.098  15.299   5.999  0.2195 -0.2085 -0.0893
    1DPPC   C2B  430  11.086  15.174   5.565 -0.0247 -0.0795 -0.1709
    1DPPC   C3B  431  11.079  15.246   5.108  0.1440 -0.0818  0.0138
    1DPPC   C4B  432  11.128  15.392   4.614  0.1793 -0.1156 -0.1972
    1DPPC   NC3  433   7.360  15.296   6.967  0.0538 -0.1509  0.1794
    1DPPC   PO4  434   7.530  15.069   6.559  0.0971 -0.0681 -0.1267
    1DPPC   GL1  435   7.679  14.924   6.161 -0.2430  0.1911 -0.2275
    1DPPC   GL2  436   7.614  14.615   6.073  0.0434 -0.0873 -0.1043
    1DPPC   C1A  437   7.900  15.059   5.793 -0.1805 -0.1729  0.1302
    1DPPC   C2A  438   7.938  15.099   5.441 -0.1650  0.0581  0.0755
    1DPPC   C3A  439   7.969  15.020   5.041 -0.1383 -0.1080  0.4139
    1DPPC   C4A  440   8.002  14.981   4.621  0.2811  0.1458  0.1893
    1DPPC   C1B  441   7.890  14.496   5.775  0.2185  0.0447  0.2388
    1DPPC   C2B  442   7.992  14.607   5.343 -0.2992 -0.1397  0.1109
    1DPPC   C3B  443   8.108  14.507   4.966  0.1267 -0.0364 -0.3021
    1DPPC   C4B  444   8.087  14.393   4.505  0.1555  0.0350 -0.0726
    1DPPC   NC3  445  15.300  18.618   6.998  0.1316  0.0660  0.0600
    1DPPC   PO4  446  14.838  18.444   7.173  0.2682 -0.1187 -0.3369
    1DPPC   GL1  447  14.904  18.413   6.759 -0.2995 -0.0063 -0.1712
    1DPPC   GL2  448  14.911  18.117   6.648  0.1287  0.1463  0.2046
    1DPPC   C1A  449  14.863  18.696   6.339  0.3738 -0.0091  0.0334
    1DPPC   C2A  450  14.995  18.748   5.931  0.1866 -0.1065 -0.0873
    1DPPC   C3A  451  15.176  18.814   5.520  0.1055  0.2708  0.0820
    1DPPC   C4A  452  15.461  18.817   5.194  0.0845  0.1443  0.3452
    1DPPC   C1B  453  14.910  18.260   6.274  0.1853  0.1857  0.0101
    1DPPC   C2B  454  15.056  18.241   5.912 -0.0720  0.0472 -0.2717
    1DPPC   C3B  455  15.090  18.145   5.538  0.2724  0.0051 -0.0529
    1DPPC   C4B  456  15.197  18.001   5.144  0.1519 -0.0382 -0.2076
    1DPPC   NC3  457  19.989  12.494   7.082 -0.1764  0.0124  0.0929
    1DPPC   PO4  458  19.981  12.837   6.833 -0.0784  0.0697  0.2788
    1DPPC   GL1  459  20.120  13.039   6.464 -0.1728 -0.0276  0.2240
    1DPPC   GL2  460  20.275  12.774   6.279  0.1673 -0.3048  0.1806
    1DPPC   C1A  461  20.091  13.208   6.047  0.1839 -0.0778 -0.0685
    1DPPC   C2A  462  20.023  13.200   5.612 -0.1079 -0.0481  0.0994
    1DPPC   C3A  463  19.962  13.209   5.109 -0.3390  0.3483 -0.0273
    1DPPC   C4A  464  19.969  12.947   4.784 -0.2394  0.0920  0.0606
    1DPPC   C1B  465  20.252  12.757   5.817  0.0200 -0.1611  0.0634
    1DPPC   C2B  466  20.171  12.736   5.319 -0.0146 -0.0304 -0.1338
    1DPPC   C3B  467  20.277  12.574   5.017  0.0562  0.0125  0.0726
    1DPPC   C4B  468  20.513  12.620   4.619 -0.0339 -0.0098  0.1311
    1DPPC   NC3  469  16.921  13.559   6.894 -0.1007 -0.0413 -0.0364
    1DPPC   PO4  470  16.585  13.233   6.885  0.1942  0.2829 -0.1411
    1DPPC   GL1  471  16.782  13.278   6.469  0.1570  0.0978  0.1734
    1DPPC   GL2  472  16.992  13.569   6.369 -0.0003  0.0832 -0.0981
    1DPPC   C1A  473  16.772  13.138   6.091 -0.2466 -0.0203  0.0708
    1DPPC   C2A  474  16.963  13.001   5.674 -0.2168 -0.2009  0.1332
    1DPPC   C3A  475  17.331  13.086   5.389 -0.2379 -0.2136  0.1459
    1DPPC   C4A  476  17.309  13.213   4.964 -0.0660 -0.1417  0.0390
    1DPPC   C1B  477  16.857  13.904   6.081  0.1161 -0.3295  0.1535
    1DPPC   C2B  478  16.936  13.887   5.653  0.2988 -0.1289  0.1079
    1DPPC   C3B  479  16.919  13.934   5.243 -0.0763  0.0938  0.0202
    1DPPC   C4B  480  17.327  13.686   5.039 -0.3409  0.3538 -0.2686
    1DPPC   NC3  481  18.201  22.866   6.962  0.1981 -0.0059  0.0800
    1DPPC   PO4  482  18.354  22.560   6.690 -0.1044  0.0359  0.2343
    1DPPC   GL1  483  18.490  22.494   6.228  0.0411 -0.0309  0.1409
    1DPPC   GL2  484  18.728  22.289   6.233 -0.2037  0.1904  0.0641
    1DPPC   C1A  485  18.326  22.346   5.815  0.1387  0.1569  0.1876
    1DPPC   C2A  486  18.431  22.193   5.384  0.1210 -0.3693  0.0494
    1DPPC   C3A  487  18.223  21.962   5.091 -0.1056  0.1961  0.2109
    1DPPC   C4A  488  18.131  21.956   4.736  0.1284 -0.0767 -0.1788
    1DPPC   C1B  489  18.948  22.119   5.858  0.3007  0.0605  0.0738
    1DPPC   C2B  490  19.055  22.104   5.384 -0.4534  0.1669  0.1123
    1DPPC   C3B  491  18.892  22.052   5.015  0.0696 -0.1267  0.1094
    1DPPC   C4B  492  18.653  22.183   4.675 -0.0241  0.0325  0.0015
    1DPPC   NC3  493  22.666  28.420   6.555  0.1080  0.1673 -0.0498
    1DPPC   PO4  494  22.651  27.978   6.538  0.1007 -0.0594 -0.3717
    1DPPC   GL1  495  22.542  27.919   6.137  0.2069 -0.1467 -0.1355
    1DPPC   GL2  496  22.375  27.663   6.118 -0.0411  0.0939  0.0978
    1DPPC   C1A  497  22.507  28.071   5.747 -0.0697  0.1319  0.0721
    1DPPC   C2A  498  22.557  28.370   5.514 -0.3137  0.1509  0.1740
    1DPPC   C3A  499  22.513  28.477   4.995 -0.4084  0.2043  0.1408
    1DPPC   C4A  500  22.237  28.523   4.632 -0.2879 -0.1825 -0.0102
    1DPPC   C1B  501  22.461  27.594   5.714  0.1378 -0.0667  0.1394
    1DPPC   C2B  502  22.892  27.659   5.486  0.1321 -0.0789  0.0767
    1DPPC   C3B  503  23.050  27.459   5.100  0.0712  0.1113  0.0359
    1DPPC   C4B  504  22.966  27.268   4.739 -0.0624 -0.3933 -0.1088
    1DPPC   NC3  505  15.297  15.148   6.970  0.1548 -0.2789  0.0313
    1DPPC   PO4  506  14.896  15.192   7.191  0.0231  0.2551  0.0341
    1DPPC   GL1  507  14.944  15.368   6.740  0.3842 -0.0923  0.2786
    1DPPC   GL2  508  14.846  15.732   6.602  0.1655  0.0953  0.2220
    1DPPC   C1A  509  15.101  15.331   6.365 -0.0173 -0.1976 -0.2128
    1DPPC   C2A  510  15.169  15.394   5.818 -0.2138 -0.1004 -0.3353
    1DPPC   C3A  511  15.190  15.432   5.401 -0.0750 -0.1034  0.0529
    1DPPC   C4A  512  15.041  15.409   4.966  0.0032  0.0276  0.1226
    1DPPC   C1B  513  14.845  15.801   6.200  0.0634 -0.1413  0.0602
    1DPPC   C2B  514  14.819  15.815   5.663 -0.2962  0.1840  0.0652
    1DPPC   C3B  515  14.957  15.932   5.269  0.2198 -0.0219 -0.0645
    1DPPC   C4B  516  14.981  15.942   4.792 -0.3815  0.0917  0.4638
    1DPPC   NC3  517  20.417  17.236   7.243  0.1353  0.1145  0.1214
    1DPPC   PO4  518  20.330  17.698   7.234 -0.1413  0.0445 -0.0501
    1DPPC   GL1  519  20.323  17.602   6.856 -0.2222  0.3404  0.0223
    1DPPC   GL2  520  20.064  17.582   6.717  0.0818  0.2236 -0.2771
    1DPPC   C1A  521  20.449  17.560   6.358  0.0529 -0.2007  0.0171
    1DPPC   C2A  522  20.286  17.589   6.064  0.4474 -0.0287 -0.1097
    1DPPC   C3A  523  20.148  17.663   5.753  0.1410 -0.0251 -0.1107
    1DPPC   C4A  524  19.989  17.906   5.333  0.1195 -0.0122 -0.2107
    1DPPC   C1B  525  19.928  17.830   6.438  0.0341 -0.1784 -0.0788
    1DPPC   C2B  526  19.792  17.942   6.035  0.4131  0.0943 -0.0482
    1DPPC   C3B  527  19.740  18.191   5.767 -0.1805  0.0274  0.1674
    1DPPC   C4B  528  20.033  18.413   5.564 -0.2096  0.0168  0.0155
    1DPPC   NC3  529  12.048  15.872   7.093  0.1185 -0.1705 -0.1733
    1DPPC   PO4  530  12.458  15.935   7.243  0.0345  0.1742  0.0600
    1DPPC   GL1  531  12.500  15.961   6.806 -0.0522 -0.0962  0.1541
    1DPPC   GL2  532  12.741  15.718   6.640  0.3588  0.1404  0.3266
    1DPPC   C1A  533  12.789  16.235   6.484  0.2022  0.0713  0.0852
    1DPPC   C2A  534  12.879  16.222   6.061 -0.0456  0.0256  0.3245
    1DPPC   C3A  535  12.958  16.205   5.614  0.1117  0.4357 -0.0242
    1DPPC   C4A  536  13.064  16.208   5.166 -0.0328  0.1299 -0.0509
    1DPPC   C1B  537  12.598  15.814   6.245 -0.0844 -0.3544 -0.0644
    1DPPC   C2B  538  12.710  15.711   5.816 -0.0776  0.2089  0.3218
    1DPPC   C3B  539  12.790  15.758   5.367  0.2552 -0.0619 -0.0989
    1DPPC   C4B  540  12.707  15.915   4.952 -0.1462 -0.2050 -0.1118
    1DPPC   NC3  541  13.625  18.685   7.259  0.0979  0.3475  0.0852
    1DPPC   PO4  542  13.153  18.442   7.097  0.1146  0.0464  0.0673
    1DPPC   GL1  543  13.381  18.478   6.731  0.3272  0.3408  0.0304
    1DPPC   GL2  544  13.506  18.796   6.804 -0.1149  0.0484  0.1549
    1DPPC   C1A  545  13.477  18.429   6.306 -0.3729  0.1787 -0.1550
    1DPPC   C2A  546  13.528  18.413   5.844  0.0361  0.0171  0.3561
    1DPPC   C3A  547  13.591  18.414   5.405 -0.2574 -0.1530  0.2630
    1DPPC   C4A  548  13.552  18.776   5.072 -0.3785  0.0361 -0.0177
    1DPPC   C1B  549  13.815  18.843   6.458  0.1109  0.1611 -0.0039
    1DPPC   C2B  550  13.952  18.587   6.137  0.3847 -0.1198 -0.1903
    1DPPC   C3B  551  14.006  18.641   5.653 -0.2723 -0.0973  0.0002
    1DPPC   C4B  552  14.091  18.638   5.212  0.0330 -0.2135  0.4394
    1DPPC   NC3  553  11.600  13.552   7.922 -0.0213 -0.3642 -0.1989
    1DPPC   PO4  554  11.434  13.565   7.460 -0.1537  0.2161  0.0126
    1DPPC   GL1  555  11.477  13.376   7.039 -0.2595  0.0529 -0.0791
    1DPPC   GL2  556  11.745  13.417   6.975 -0.3426  0.2675 -0.0113
    1DPPC   C1A  557  11.452  13.334   6.503  0.1728  0.2617 -0.0545
    1DPPC   C2A  558  11.343  13.578   6.159 -0.1766  0.1176 -0.0947
    1DPPC   C3A  559  11.146  13.533   5.686 -0.2998 -0.1946  0.0646
    1DPPC   C4A  560  11.184  13.495   5.213  0.0464 -0.2261 -0.1547
    1DPPC   C1B  561  11.898  13.547   6.506 -0.1015 -0.0735  0.3256
    1DPPC   C2B  562  11.802  13.406   6.144  0.0294  0.0429 -0.0477
    1DPPC   C3B  563  11.846  13.444   5.723  0.0169 -0.3466 -0.0762
    1DPPC   C4B  564  11.693  13.351   5.320  0.2666  0.1343 -0.1004
    1DPPC   NC3  565  11.665  17.027   6.775 -0.1341  0.2390 -0.1892
    1DPPC   PO4  566  11.771  16.718   7.032 -0.0655 -0.1502  0.3020
    1DPPC   GL1  567  11.720  16.534   6.629  0.1438  0.0698 -0.0901
    1DPPC   GL2  568  11.459  16.287   6.491 -0.2893 -0.0105  0.1118
    1DPPC   C1A  569  11.892  16.397   6.232 -0.6906  0.0391  0.1512
    1DPPC   C2A  570  11.980  16.255   5.916  0.1091  0.0664 -0.0400
    1DPPC   C3A  571  11.998  16.237   5.463  0.2398 -0.0690 -0.1583
    1DPPC   C4A  572  11.849  16.385   5.077 -0.1028  0.2086  0.5191
    1DPPC   C1B  573  11.518  16.007   6.245  0.2224  0.0659 -0.1093
    1DPPC   C2B  574  11.578  16.061   5.814 -0.0577  0.0385  0.1839
    1DPPC   C3B  575  11.613  15.959   5.419  0.1578  0.1715 -0.0906
    1DPPC   C4B  576  11.811  15.662   5.139  0.0666 -0.2005 -0.0631
    1DPPC   NC3  577   7.706  10.622   6.866 -0.3029  0.1353 -0.1200
    1DPPC   PO4  578   7.357  10.947   7.033 -0.2048 -0.0891  0.0768
    1DPPC   GL1  579   7.332  11.135   6.684 -0.0754  0.0852  0.0035
    1DPPC   GL2  580   7.258  11.474   6.441 -0.0160 -0.0048 -0.1685
    1DPPC   C1A  581   7.375  10.850   6.333  0.0596 -0.2041  0.0043
    1DPPC   C2A  582   7.213  10.775   5.925  0.2550 -0.2061 -0.1810
    1DPPC   C3A  583   7.064  10.812   5.387 -0.1314  0.2594 -0.1643
    1DPPC   C4A  584   6.953  10.969   5.080  0.1823  0.0770  0.2115
    1DPPC   C1B  585   7.273  11.339   6.026 -0.2259  0.0633  0.0069
    1DPPC   C2B  586   7.082  11.254   5.615  0.1325 -0.1337  0.1762
    1DPPC   C3B  587   7.222  11.299   5.289 -0.1086 -0.4668 -0.0537
    1DPPC   C4B  588   7.489  11.225   4.955  0.0306 -0.2466 -0.1891
    1DPPC   NC3  589  15.277  17.181   7.087 -0.0412 -0.0214 -0.1908
    1DPPC   PO4  590  14.834  16.927   7.328 -0.3472  0.1680  0.0665
    1DPPC   GL1  591  14.926  16.954   6.751  0.4085  0.1145 -0.2345
    1DPPC   GL2  592  14.991  16.699   6.650 -0.0385 -0.1994 -0.0411
    1DPPC   C1A  593  15.068  17.060   6.354 -0.0977  0.0164  0.2698
    1DPPC   C2A  594  15.115  17.075   5.975 -0.1284 -0.0094  0.0289
    1DPPC   C3A  595  14.997  17.099   5.525  0.0910 -0.2281 -0.1266
    1DPPC   C4A  596  14.736  17.087   5.200  0.0077 -0.1370  0.1652
    1DPPC   C1B  597  15.247  16.598   6.326 -0.1077 -0.1816  0.2928
    1DPPC   C2B  598  15.333  16.650   5.905 -0.0617 -0.1135  0.1006
    1DPPC   C3B  599  15.386  16.747   5.450  0.0688  0.0243  0.0278
    1DPPC   C4B  600  15.301  16.945   5.132  0.1746 -0.3432  0.0431
    1DPPC   NC3  601  22.674  15.405   6.107 -0.5194  0.3821 -0.0510
    1DPPC   PO4  602  22.583  15.709   6.334 -0.0471  0.0960 -0.0418
    1DPPC   GL1  603  22.406  15.830   5.936  0.3498  0.0386  0.1996
    1DPPC   GL2  604  22.631  16.104   5.997  0.2696  0.0593  0.0150
    1DPPC   C1A  605  22.316  15.668   5.522 -0.1352  0.0384  0.0004
    1DPPC   C2A  606  22.278  15.780   5.134  0.3598 -0.0891  0.0595
    1DPPC   C3A  607  22.339  15.836   4.699 -0.2721 -0.0814  0.4286
    1DPPC   C4A  608  22.499  15.785   4.346  0.2205  0.0495 -0.0306
    1DPPC   C1B  609  22.626  16.176   5.617  0.2062 -0.0002  0.3319
    1DPPC   C2B  610  22.415  16.312   5.241 -0.2488 -0.0530 -0.1610
    1DPPC   C3B  611  22.334  16.677   4.986 -0.0935  0.0786 -0.1678
    1DPPC   C4B  612  21.950  16.886   4.959 -0.2866 -0.2605 -0.1382
    1DPPC   NC3  613  18.244  11.337   7.027  0.2067 -0.1208  0.2171
    1DPPC   PO4  614  18.638  11.317   6.930  0.0627 -0.3631 -0.2412
    1DPPC   GL1  615  18.854  11.092   6.608 -0.0732  0.2882 -0.1953
    1DPPC   GL2  616  19.087  11.458   6.579 -0.1560 -0.5220 -0.1227
    1DPPC   C1A  617  18.720  11.082   6.181 -0.0417 -0.3190 -0.1786
    1DPPC   C2A  618  18.757  11.153   5.780  0.1418 -0.1339  0.3100
    1DPPC   C3A  619  18.726  11.179   5.319  0.1681  0.1228  0.1800
    1DPPC   C4A  620  18.718  11.024   4.937 -0.3530  0.0510 -0.3002
    1DPPC   C1B  621  19.036  11.569   6.237 -0.0853 -0.1888 -0.0192
    1DPPC   C2B  622  19.065  11.607   5.889  0.0250  0.2533 -0.2204
    1DPPC   C3B  623  18.969  11.667   5.461 -0.1470 -0.1476  0.0720
    1DPPC   C4B  624  18.696  11.709   5.145  0.0637 -0.1493 -0.1570
    1DPPC   NC3  625  11.823  11.431   7.297  0.0940 -0.3150 -0.2234
    1DPPC   PO4  626  12.241  11.314   7.166  0.2937 -0.3655 -0.4139
    1DPPC   GL1  627  12.327  11.322   6.804  0.1281 -0.3243  0.1770
    1DPPC   GL2  628  12.398  11.017   6.563  0.0307 -0.2001  0.0100
    1DPPC   C1A  629  12.504  11.559   6.496  0.1237  0.1582  0.0876
    1DPPC   C2A  630  12.393  11.741   6.211  0.1215  0.0095 -0.0762
    1DPPC   C3A  631  12.466  11.619   5.837 -0.2087 -0.2907  0.1137
    1DPPC   C4A  632  12.371  11.504   5.496  0.0778 -0.4318 -0.0586
    1DPPC   C1B  633  12.548  11.120   6.168  0.3540  0.0137  0.0067
    1DPPC   C2B  634  12.599  11.178   5.758 -0.3151 -0.2278 -0.0819
    1DPPC   C3B  635  12.589  11.082   5.353 -0.2353  0.2146  0.2754
    1DPPC   C4B  636  12.590  11.302   5.058 -0.1441  0.1740  0.0568
    1DPPC   NC3  637  10.017  11.804   7.167  0.3874 -0.0007  0.1130
    1DPPC   PO4  638   9.649  11.950   7.072  0.2491 -0.1154 -0.2322
    1DPPC   GL1  639   9.885  11.948   6.687 -0.0453 -0.2723 -0.1512
    1DPPC   GL2  640   9.782  12.191   6.506 -0.3011  0.2748  0.2718
    1DPPC   C1A  641  10.275  11.786   6.367 -0.1473  0.0156 -0.1329
    1DPPC   C2A  642  10.357  11.496   6.035  0.1592 -0.0294 -0.2698
    1DPPC   C3A  643  10.581  11.455   5.650 -0.0101 -0.2321 -0.0558
    1DPPC   C4A  644  10.846  11.098   5.368 -0.0956  0.1164  0.1046
    1DPPC   C1B  645   9.968  12.182   6.078 -0.0710  0.3253 -0.0760
    1DPPC   C2B  646  10.066  11.970   5.700 -0.2022  0.3157 -0.0997
    1DPPC   C3B  647  10.302  11.839   5.406  0.0025 -0.0719  0.1576
    1DPPC   C4B  648  10.683  11.659   5.147  0.0391 -0.0170  0.2510
    1DPPC   NC3  649   3.026   7.277   5.844  0.1336  0.3059  0.2107
    1DPPC   PO4  650   2.983   6.890   6.105 -0.1046  0.0628 -0.0338
    1DPPC   GL1  651   3.295   6.731   5.738  0.1775 -0.5222 -0.0637
    1DPPC   GL2  652   3.687   6.741   5.709 -0.2091 -0.5191  0.0398
    1DPPC   C1A  653   3.290   6.965   5.293 -0.1407  0.1908 -0.0544
    1DPPC   C2A  654   3.297   7.047   4.812 -0.1553  0.0452 -0.0155
    1DPPC   C3A  655   3.400   7.128   4.432  0.2441  0.1419  0.0474
    1DPPC   C4A  656   3.192   7.410   4.193 -0.0369  0.2911 -0.2498
    1DPPC   C1B  657   3.835   6.939   5.332 -0.2285  0.0835  0.1482
    1DPPC   C2B  658   3.721   6.834   4.997 -0.1642 -0.0852 -0.1308
    1DPPC   C3B  659   3.993   7.003   4.666 -0.2749  0.2031  0.0158
    1DPPC   C4B  660   4.253   7.097   4.350 -0.1519  0.1138 -0.3383
    1DPPC   NC3  661  21.300  13.579   6.436 -0.2835  0.2639 -0.1246
    1DPPC   PO4  662  21.056  13.952   6.708  0.0035  0.3211 -0.1102
    1DPPC   GL1  663  21.068  14.237   6.393  0.0235  0.1427  0.0368
    1DPPC   GL2  664  21.075  14.017   6.132 -0.0805  0.0677 -0.1452
    1DPPC   C1A  665  21.052  14.538   6.029  0.0226 -0.0661  0.1588
    1DPPC   C2A  666  21.384  14.818   5.738  0.0038  0.0828  0.1474
    1DPPC   C3A  667  21.371  14.778   5.271  0.1495  0.0066 -0.1033
    1DPPC   C4A  668  21.488  14.627   4.777 -0.2508  0.0097 -0.3591
    1DPPC   C1B  669  20.825  14.036   5.864  0.3745 -0.0308  0.1330
    1DPPC   C2B  670  20.754  13.941   5.538 -0.1622 -0.0419  0.1397
    1DPPC   C3B  671  20.664  13.922   5.181 -0.1102  0.0529  0.0919
    1DPPC   C4B  672  20.743  13.902   4.800 -0.1366  0.3383  0.0182
    1DPPC   NC3  673  19.535   8.532   7.078 -0.1225  0.1980 -0.0296
    1DPPC   PO4  674  19.220   8.265   7.025 -0.0454  0.0312  0.1253
    1DPPC   GL1  675  19.222   8.338   6.613 -0.0268 -0.1182  0.1100
    1DPPC   GL2  676  19.572   8.177   6.541  0.0139  0.0777 -0.3654
    1DPPC   C1A  677  18.926   8.360   6.353  0.0722  0.0859  0.0059
    1DPPC   C2A  678  18.913   8.297   5.978  0.1248 -0.1078  0.0812
    1DPPC   C3A  679  18.794   8.264   5.526  0.4138  0.0079 -0.1684
    1DPPC   C4A  680  18.575   8.292   5.098  0.0171 -0.0922 -0.2637
    1DPPC   C1B  681  19.349   8.037   6.245 -0.0035 -0.1370  0.0459
    1DPPC   C2B  682  19.428   8.093   5.837  0.2905  0.0854 -0.3818
    1DPPC   C3B  683  19.297   8.279   5.414  0.4384 -0.1826 -0.1088
    1DPPC   C4B  684  18.994   8.070   5.054 -0.3347 -0.0792  0.1635
    1DPPC   NC3  685   1.780  14.290   6.217 -0.0247 -0.2702 -0.1995
    1DPPC   PO4  686   2.159  13.983   6.183  0.1334 -0.1919  0.1276
    1DPPC   GL1  687   1.943  14.209   5.726  0.2985 -0.2803  0.0491
    1DPPC   GL2  688   2.294  14.417   5.495 -0.2762 -0.0455 -0.1806
    1DPPC   C1A  689   1.845  14.281   5.241  0.0367  0.1295 -0.1639
    1DPPC   C2A  690   1.697  14.496   4.947  0.1822  0.0349 -0.1170
    1DPPC   C3A  691   1.696  14.565   4.383 -0.0052  0.0790  0.0205
    1DPPC   C4A  692   1.549  15.005   4.299  0.0632  0.0128 -0.1464
    1DPPC   C1B  693   2.582  14.750   5.299  0.0250 -0.1339 -0.0667
    1DPPC   C2B  694   2.871  14.819   4.996  0.2521 -0.1840  0.0626
    1DPPC   C3B  695   3.126  14.822   4.699  0.1463 -0.0374  0.1741
    1DPPC   C4B  696   3.309  15.163   4.378  0.1989 -0.4295 -0.0198
    1DPPC   NC3  697  14.134  21.767   6.983 -0.1982  0.0261  0.0095
    1DPPC   PO4  698  14.533  21.578   7.021  0.0408 -0.0886  0.1449
    1DPPC   GL1  699  14.660  21.310   6.607 -0.1497  0.1334  0.2305
    1DPPC   GL2  700  14.758  21.575   6.279  0.0035  0.0417  0.1387
    1DPPC   C1A  701  14.439  21.166   6.234  0.0950  0.2593  0.0547
    1DPPC   C2A  702  14.319  20.990   5.879  0.1404 -0.2801 -0.2226
    1DPPC   C3A  703  14.110  20.542   5.760  0.0043  0.5320 -0.2954
    1DPPC   C4A  704  13.872  20.452   5.408  0.2305 -0.3577 -0.2647
    1DPPC   C1B  705  14.682  21.335   5.834 -0.2296 -0.2990  0.0004
    1DPPC   C2B  706  14.751  21.165   5.454 -0.0809  0.1352  0.2164
    1DPPC   C3B  707  14.945  21.273   4.995 -0.1561  0.2187  0.0746
    1DPPC   C4B  708  14.968  21.333   4.558  0.3626 -0.0160 -0.1798
    1DPPC   NC3  709  20.972   9.596   6.754  0.0431 -0.3821  0.1864
    1DPPC   PO4  710  20.565   9.779   6.651  0.2228 -0.0621  0.1550
    1DPPC   GL1  711  20.712   9.956   6.306 -0.1143  0.1451 -0.1715
    1DPPC   GL2  712  20.978  10.128   6.492 -0.0274  0.0158 -0.1323
    1DPPC   C1A  713  20.717   9.841   5.893  0.0504  0.0143  0.5032
    1DPPC   C2A  714  20.705   9.824   5.408 -0.0527 -0.0132 -0.4022
    1DPPC   C3A  715  20.881   9.743   4.945  0.3326 -0.0767  0.0339
    1DPPC   C4A  716  20.856   9.710   4.499 -0.0724 -0.0717  0.0407
    1DPPC   C1B  717  20.941  10.297   6.084  0.3782  0.1710  0.0633
    1DPPC   C2B  718  20.989  10.228   5.617 -0.1159 -0.2034 -0.3202
    1DPPC   C3B  719  21.314  10.219   5.204 -0.0755 -0.0750  0.3414
    1DPPC   C4B  720  21.688   9.886   5.176 -0.2400 -0.1355 -0.1598
    1DPPC   NC3  721   4.403  12.208   6.384 -0.1406 -0.0258  0.0451
    1DPPC   PO4  722   4.191  11.845   6.430 -0.0379 -0.0224 -0.3250
    1DPPC   GL1  723   4.096  11.862   6.032 -0.3091 -0.0144 -0.1536
    1DPPC   GL2  724   4.103  12.156   5.951  0.0141 -0.1844  0.2086
    1DPPC   C1A  725   4.034  11.690   5.661  0.0042 -0.0339 -0.1050
    1DPPC   C2A  726   3.877  11.809   5.167  0.0193  0.2793  0.0519
    1DPPC   C3A  727   3.812  11.896   4.723 -0.2966 -0.0268  0.0670
    1DPPC   C4A  728   3.679  11.840   4.315  0.2257 -0.1339 -0.1637
    1DPPC   C1B  729   4.386  12.061   5.651 -0.1778 -0.0006  0.1715
    1DPPC   C2B  730   4.344  11.882   5.301  0.3254 -0.0516 -0.0698
    1DPPC   C3B  731   4.295  11.806   4.874  0.0531  0.1856  0.2524
    1DPPC   C4B  732   4.218  12.054   4.564  0.0528  0.1325 -0.2565
    1DPPC   NC3  733  20.596  18.195   7.168 -0.2979 -0.0034 -0.3015
    1DPPC   PO4  734  20.237  18.461   7.093  0.0765  0.2087  0.1317
    1DPPC   GL1  735  20.149  18.539   6.694  0.0580  0.0995 -0.1728
    1DPPC   GL2  736  19.776  18.556   6.769 -0.1610  0.0547 -0.0225
    1DPPC   C1A  737  19.930  18.851   6.434 -0.0704  0.1476  0.1051
    1DPPC   C2A  738  19.835  19.182   6.214  0.0139 -0.1656 -0.1208
    1DPPC   C3A  739  19.630  19.377   5.851 -0.0032 -0.1217 -0.1281
    1DPPC   C4A  740  19.472  19.579   5.474 -0.2351 -0.0092 -0.0664
    1DPPC   C1B  741  19.493  18.567   6.502 -0.0624 -0.1355 -0.0454
    1DPPC   C2B  742  19.612  18.701   6.083 -0.0557 -0.1827  0.0584
    1DPPC   C3B  743  19.365  18.627   5.697 -0.3521 -0.2540  0.0363
    1DPPC   C4B  744  19.149  18.536   5.333 -0.0763 -0.1073  0.0173
    1DPPC   NC3  745  18.276   9.188   7.187 -0.1913 -0.0109  0.2217
    1DPPC   PO4  746  18.659   9.064   7.271 -0.0301  0.1898  0.0753
    1DPPC   GL1  747  18.919   9.062   6.955  0.1963 -0.2039 -0.0507
    1DPPC   GL2  748  19.102   8.776   6.855 -0.0718  0.0404 -0.1826
    1DPPC   C1A  749  18.898   9.342   6.571 -0.0478  0.0274  0.0294
    1DPPC   C2A  750  18.755   9.503   6.253  0.0327  0.0527 -0.1466
    1DPPC   C3A  751  18.748   9.599   5.893  0.1195  0.2568 -0.2166
    1DPPC   C4A  752  18.786   9.549   5.544  0.0142 -0.0839  0.0076
    1DPPC   C1B  753  18.927   8.833   6.498  0.1046 -0.0863 -0.2026
    1DPPC   C2B  754  18.859   8.800   6.141 -0.0172 -0.1127  0.0957
    1DPPC   C3B  755  18.822   8.750   5.722  0.0202 -0.1387  0.2165
    1DPPC   C4B  756  18.526   8.774   5.301 -0.1120  0.1307  0.0068
    1DPPC   NC3  757  14.998  18.903   7.381 -0.0036  0.0221  0.2541
    1DPPC   PO4  758  14.990  19.088   6.923 -0.0353  0.1872 -0.0349
    1DPPC   GL1  759  15.268  19.159   6.648  0.0330  0.0429 -0.1931
    1DPPC   GL2  760  15.378  19.492   6.658 -0.0427 -0.1062 -0.1920
    1DPPC   C1A  761  15.203  19.039   6.287 -0.0646  0.1946 -0.0160
    1DPPC   C2A  762  15.279  19.167   5.945  0.0180 -0.2314  0.0274
    1DPPC   C3A  763  15.495  19.181   5.566  0.0930  0.0326 -0.0529
    1DPPC   C4A  764  15.665  19.478   5.249 -0.0495 -0.0179 -0.0904
    1DPPC   C1B  765  15.641  19.541   6.247 -0.1347  0.0070  0.2535
    1DPPC   C2B  766  15.873  19.715   6.038 -0.2387  0.0312 -0.0069
    1DPPC   C3B  767  16.136  19.988   5.819  0.2913  0.0750  0.1171
    1DPPC   C4B  768  16.380  20.209   5.571  0.1931  0.1793 -0.3898
    1DPPC   NC3  769  16.494  15.811   7.397  0.0087  0.2768  0.1688
    1DPPC   PO4  770  16.785  16.023   7.031 -0.0358 -0.1600  0.2154
    1DPPC   GL1  771  16.685  16.157   6.650 -0.1192  0.0849  0.0836
    1DPPC   GL2  772  16.876  15.827   6.500  0.0510 -0.0955 -0.0225
    1DPPC   C1A  773  16.765  16.286   6.296  0.2011  0.0129  0.0444
    1DPPC   C2A  774  16.792  16.390   5.909  0.0740  0.2398 -0.1985
    1DPPC   C3A  775  16.821  16.385   5.539  0.3114  0.0711  0.0285
    1DPPC   C4A  776  16.772  16.184   5.252  0.3025  0.3524 -0.4665
    1DPPC   C1B  777  16.818  15.873   6.074 -0.0333 -0.0626 -0.0702
    1DPPC   C2B  778  16.698  15.890   5.641 -0.0663  0.1446  0.2422
    1DPPC   C3B  779  16.623  15.694   5.256  0.0358 -0.1506 -0.2556
    1DPPC   C4B  780  16.729  15.440   4.959 -0.1490  0.5315  0.1177
    1DPPC   NC3  781  12.029  14.986   7.087 -0.1811 -0.1429  0.0980
    1DPPC   PO4  782  12.473  15.061   6.941  0.1177  0.0533 -0.0580
    1DPPC   GL1  783  12.445  15.294   6.572 -0.0734  0.1698 -0.3799
    1DPPC   GL2  784  12.220  15.440   6.660  0.2093 -0.1684  0.0248
    1DPPC   C1A  785  12.358  15.297   6.168 -0.0231 -0.4082  0.0066
    1DPPC   C2A  786  12.387  15.244   5.714 -0.2189 -0.2806  0.0749
    1DPPC   C3A  787  12.495  15.404   5.390  0.0547 -0.1869  0.1630
    1DPPC   C4A  788  12.387  15.465   4.926 -0.0510  0.1114  0.3421
    1DPPC   C1B  789  11.897  15.336   6.345  0.1940  0.1276 -0.1741
    1DPPC   C2B  790  11.872  15.277   5.903 -0.2302 -0.0140 -0.0110
    1DPPC   C3B  791  11.988  15.313   5.442 -0.0792 -0.0503  0.0731
    1DPPC   C4B  792  12.025  15.179   5.022  0.1341  0.2064 -0.1100
    1DPPC   NC3  793  15.963   9.110   7.359 -0.0674  0.1269  0.0856
    1DPPC   PO4  794  15.661   8.785   7.604  0.0566  0.0948  0.1059
    1DPPC   GL1  795  15.656   8.466   7.286  0.1771  0.1970 -0.0053
    1DPPC   GL2  796  15.394   8.511   7.056 -0.0755  0.0431  0.0491
    1DPPC   C1A  797  15.798   8.462   6.816 -0.0403  0.0721 -0.0267
    1DPPC   C2A  798  15.805   8.316   6.352 -0.2347 -0.0197  0.1196
    1DPPC   C3A  799  15.877   8.240   5.915 -0.0144  0.3145 -0.1843
    1DPPC   C4A  800  16.242   8.095   5.673  0.1429  0.0040 -0.1121
    1DPPC   C1B  801  15.332   8.439   6.494  0.0937  0.2245 -0.1740
    1DPPC   C2B  802  15.368   8.346   6.054  0.0353  0.1655  0.1095
    1DPPC   C3B  803  15.406   8.012   5.760 -0.0850  0.0048  0.0932
    1DPPC   C4B  804  15.348   7.559   5.801 -0.0409  0.3277 -0.0389
    1DPPC   NC3  805  14.198  13.807   6.978 -0.1900 -0.0736  0.1563
    1DPPC   PO4  806  14.689  13.886   6.818  0.0322  0.2581 -0.2265
    1DPPC   GL1  807  14.433  13.944   6.393 -0.2617 -0.0298 -0.0983
    1DPPC   GL2  808  14.253  14.256   6.346  0.1716 -0.0391 -0.2682
    1DPPC   C1A  809  14.494  14.072   5.940  0.0847  0.1857  0.0963
    1DPPC   C2A  810  14.532  14.081   5.556 -0.1692 -0.1896  0.2632
    1DPPC   C3A  811  14.244  14.057   5.244 -0.3049 -0.2865 -0.1194
    1DPPC   C4A  812  13.905  14.024   4.900 -0.0838 -0.0024  0.1953
    1DPPC   C1B  813  13.998  14.179   6.030  0.1913  0.0554  0.0723
    1DPPC   C2B  814  13.982  14.247   5.647 -0.0558 -0.0746 -0.1189
    1DPPC   C3B  815  13.833  14.358   5.246 -0.1983  0.0749 -0.1185
    1DPPC   C4B  816  13.754  14.482   4.881  0.0982 -0.0154 -0.1115
    1DPPC   NC3  817  19.799   5.424   6.819  0.3092  0.0841 -0.0191
    1DPPC   PO4  818  19.404   5.776   6.663  0.0298  0.0050  0.0257
    1DPPC   GL1  819  19.544   6.069   6.334 -0.0748  0.2682  0.1067
    1DPPC   GL2  820  19.676   6.236   6.616 -0.1447 -0.2583 -0.1234
    1DPPC   C1A  821  19.692   6.273   5.977  0.0076  0.1687  0.0019
    1DPPC   C2A  822  19.939   6.436   5.657 -0.1475  0.0927 -0.0043
    1DPPC   C3A  823  19.918   6.170   5.230 -0.1921  0.1089  0.2208
    1DPPC   C4A  824  19.835   5.828   4.965 -0.1010 -0.2936 -0.0190
    1DPPC   C1B  825  20.005   6.314   6.362 -0.1718 -0.3297 -0.1122
    1DPPC   C2B  826  20.272   6.244   6.028 -0.2796 -0.0665  0.2431
    1DPPC   C3B  827  20.490   6.426   5.765 -0.0931 -0.0249 -0.1758
    1DPPC   C4B  828  20.773   6.812   5.590 -0.0637 -0.0353  0.0846
    1DPPC   NC3  829  26.729  10.039   6.577  0.1437 -0.0674  0.1077
    1DPPC   PO4  830  26.567   9.750   6.440 -0.0524  0.1075 -0.0171
    1DPPC   GL1  831  26.678   9.849   6.084 -0.0015  0.3428 -0.0439
    1DPPC   GL2  832  27.013   9.657   5.947  0.0114  0.2771  0.0148
    1DPPC   C1A  833  26.691  10.129   5.775 -0.0060 -0.0927  0.2623
    1DPPC   C2A  834  26.479  10.430   5.463  0.0832 -0.0269 -0.2544
    1DPPC   C3A  835  26.633  10.729   5.212 -0.0856 -0.1729  0.0483
    1DPPC   C4A  836  26.498  11.151   5.275  0.0837  0.0992  0.0643
    1DPPC   C1B  837  27.286   9.547   5.593 -0.0148  0.2997 -0.1012
    1DPPC   C2B  838  27.341   9.207   5.308  0.3995  0.1253  0.1189
    1DPPC   C3B  839  27.583   9.230   4.905 -0.1198  0.2230 -0.0624
    1DPPC   C4B  840  27.404   9.309   4.470 -0.3002  0.1168  0.3410
    1DPPC   NC3  841   8.418  16.055   6.508  0.1452  0.0750  0.2924
    1DPPC   PO4  842   8.865  15.854   6.678  0.0288 -0.1116  0.3207
    1DPPC   GL1  843   9.060  15.917   6.269 -0.0039 -0.0240  0.5651
    1DPPC   GL2  844   9.078  16.111   6.031  0.2451  0.0458  0.2685
    1DPPC   C1A  845   9.172  15.654   5.979  0.0220  0.1030 -0.2248
    1DPPC   C2A  846   9.293  15.572   5.591  0.1203  0.3737 -0.2588
    1DPPC   C3A  847   9.271  15.432   5.201 -0.3054 -0.1813  0.1419
    1DPPC   C4A  848   9.168  15.537   4.874  0.3464  0.0397 -0.1508
    1DPPC   C1B  849   9.096  16.038   5.578 -0.1526  0.0372  0.0428
    1DPPC   C2B  850   9.074  15.986   5.074  0.0718  0.1193  0.2527
    1DPPC   C3B  851   8.944  15.937   4.672  0.1562  0.0520 -0.0094
    1DPPC   C4B  852   8.549  16.010   4.422  0.2831  0.0109 -0.1942
    1DPPC   NC3  853  17.922  17.616   7.252 -0.0859 -0.0589  0.0456
    1DPPC   PO4  854  17.571  17.809   7.262 -0.2206  0.1738  0.1709
    1DPPC   GL1  855  17.692  18.043   6.976 -0.0926  0.2223  0.2281
    1DPPC   GL2  856  18.107  18.117   6.943  0.0508  0.1666  0.0103
    1DPPC   C1A  857  17.790  17.877   6.469 -0.2121  0.1381 -0.0622
    1DPPC   C2A  858  17.905  18.120   6.051  0.0934 -0.2296  0.0883
    1DPPC   C3A  859  18.184  18.356   5.745 -0.2872  0.1336  0.2271
    1DPPC   C4A  860  18.370  18.721   5.531  0.0545 -0.1823 -0.0855
    1DPPC   C1B  861  18.021  18.339   6.551 -0.2872 -0.0721  0.2736
    1DPPC   C2B  862  17.787  18.713   6.374  0.3108 -0.1882  0.0814
    1DPPC   C3B  863  17.611  18.723   6.061  0.0354  0.0723 -0.0104
    1DPPC   C4B  864  17.215  18.724   5.768 -0.2156 -0.1430 -0.2262
    1DPPC   NC3  865  14.620  15.621   7.087  0.1027  0.2306 -0.0618
    1DPPC   PO4  866  15.158  15.633   7.094  0.0249  0.3067 -0.0671
    1DPPC   GL1  867  14.973  16.027   6.969 -0.0946 -0.1854  0.0863
    1DPPC   GL2  868  15.080  16.264   6.959 -0.3573  0.2564  0.0588
    1DPPC   C1A  869  14.916  16.223   6.489 -0.2345  0.0060  0.0637
    1DPPC   C2A  870  14.978  16.290   6.050 -0.3253  0.3316  0.1268
    1DPPC   C3A  871  15.056  16.307   5.572  0.0720 -0.1143 -0.2456
    1DPPC   C4A  872  15.353  16.345   5.158 -0.1232  0.0238 -0.2124
    1DPPC   C1B  873  15.392  16.294   6.656 -0.0104  0.0541  0.1680
    1DPPC   C2B  874  15.725  16.459   6.272 -0.0382  0.1029 -0.0835
    1DPPC   C3B  875  15.764  16.399   5.874 -0.1693  0.0105  0.0918
    1DPPC   C4B  876  15.840  16.539   5.487  0.0908 -0.0789 -0.0712
    1DPPC   NC3  877  19.092  11.502   7.061  0.3241 -0.3914  0.1253
    1DPPC   PO4  878  19.361  11.792   6.865  0.2684 -0.2042  0.0265
    1DPPC   GL1  879  19.510  11.854   6.519 -0.4356  0.2420 -0.0529
    1DPPC   GL2  880  19.530  11.681   6.305 -0.0524 -0.0784 -0.4685
    1DPPC   C1A  881  19.645  12.147   6.235 -0.1574  0.1008 -0.1725
    1DPPC   C2A  882  19.699  12.172   5.784 -0.1566 -0.3807 -0.0896
    1DPPC   C3A  883  19.811  12.227   5.385 -0.0140  0.2113 -0.2434
    1DPPC   C4A  884  19.532  12.255   5.032  0.0991  0.2513  0.0154
    1DPPC   C1B  885  19.496  11.764   5.928 -0.2028  0.0483 -0.3444
    1DPPC   C2B  886  19.470  11.793   5.542  0.0854  0.1340  0.0733
    1DPPC   C3B  887  19.307  11.804   5.105 -0.1103  0.1213  0.1138
    1DPPC   C4B  888  19.120  12.010   4.813 -0.1353 -0.1914  0.1325
    1DPPC   NC3  889  19.667  12.171   6.848 -0.0953 -0.0730  0.1720
    1DPPC   PO4  890  19.551  12.562   6.768 -0.3452 -0.2049 -0.0216
    1DPPC   GL1  891  19.367  12.410   6.513  0.3747 -0.2050  0.0856
    1DPPC   GL2  892  19.152  12.176   6.635 -0.2080  0.1899 -0.1866
    1DPPC   C1A  893  19.161  12.513   6.200  0.2648 -0.1896 -0.0456
    1DPPC   C2A  894  19.100  12.588   5.756 -0.0889  0.0344  0.1142
    1DPPC   C3A  895  18.772  12.423   5.449  0.0377  0.0071 -0.2909
    1DPPC   C4A  896  18.749  12.267   5.050  0.0796  0.0130 -0.0170
    1DPPC   C1B  897  19.165  12.022   6.213  0.1896 -0.3857  0.1483
    1DPPC   C2B  898  19.083  12.078   5.820 -0.2163 -0.0097 -0.3082
    1DPPC   C3B  899  19.231  12.194   5.480 -0.1629 -0.0048 -0.0444
    1DPPC   C4B  900  19.179  12.528   5.193 -0.0654  0.1110 -0.0300
    1DPPC   NC3  901  21.929  14.952   6.745 -0.0171 -0.2614 -0.0734
    1DPPC   PO4  902  21.501  15.028   6.705  0.1439  0.2437  0.2122
    1DPPC   GL1  903  21.023  15.151   6.455  0.0515  0.2102 -0.1539
    1DPPC   GL2  904  21.029  15.451   6.434 -0.0047 -0.1700 -0.0838
    1DPPC   C1A  905  20.884  15.040   6.064 -0.0705  0.0098  0.0644
    1DPPC   C2A  906  20.930  14.858   5.598 -0.0357  0.0585 -0.3304
    1DPPC   C3A  907  20.896  14.815   5.163 -0.0492 -0.1489 -0.1027
    1DPPC   C4A  908  20.734  15.023   4.882  0.0581  0.5807 -0.3638
    1DPPC   C1B  909  20.938  15.526   6.080 -0.1917  0.0986  0.0332
    1DPPC   C2B  910  20.839  15.368   5.727 -0.0072 -0.2961  0.0148
    1DPPC   C3B  911  20.756  15.282   5.359 -0.1140  0.0084  0.2695
    1DPPC   C4B  912  20.430  15.373   5.121  0.1961 -0.1505  0.0492
    1DPPC   NC3  913   8.610  13.465   7.333  0.2451 -0.2004  0.2201
    1DPPC   PO4  914   8.328  13.197   6.993 -0.2697  0.2877  0.4091
    1DPPC   GL1  915   8.653  13.251   6.645  0.0670 -0.0003  0.2758
    1DPPC   GL2  916   8.986  13.162   6.687 -0.0391 -0.3491 -0.0383
    1DPPC   C1A  917   8.655  13.200   6.275 -0.0720 -0.1130 -0.0518
    1DPPC   C2A  918   8.580  13.215   5.883  0.5087 -0.0101 -0.1998
    1DPPC   C3A  919   8.576  13.360   5.405  0.0756  0.2359  0.0686
    1DPPC   C4A  920   8.509  13.360   5.008  0.3004 -0.2980  0.2152
    1DPPC   C1B  921   9.236  13.038   6.303  0.0569 -0.2168  0.1379
    1DPPC   C2B  922   9.369  13.018   5.863  0.0383 -0.3129 -0.0580
    1DPPC   C3B  923   9.451  12.997   5.452 -0.0790  0.2554 -0.0240
    1DPPC   C4B  924   9.276  12.733   4.981 -0.1317  0.1014 -0.1046
    1DPPC   NC3  925  20.281   8.232   6.817  0.2081 -0.2427  0.1513
    1DPPC   PO4  926  19.855   8.247   6.912  0.0210  0.0096 -0.1514
    1DPPC   GL1  927  19.998   8.432   6.485 -0.0588 -0.1149 -0.1331
    1DPPC   GL2  928  20.095   8.142   6.358  0.1451  0.2527 -0.0918
    1DPPC   C1A  929  20.031   8.819   6.079 -0.0535  0.0361 -0.2230
    1DPPC   C2A  930  19.964   8.906   5.683 -0.1563  0.1984 -0.2920
    1DPPC   C3A  931  19.878   8.815   5.320  0.0591 -0.2034  0.0594
    1DPPC   C4A  932  19.601   8.623   5.123 -0.4816 -0.0671 -0.0130
    1DPPC   C1B  933  19.828   8.366   6.012 -0.1032  0.2229  0.1392
    1DPPC   C2B  934  19.821   8.371   5.542  0.1509  0.1273 -0.1352
    1DPPC   C3B  935  19.635   8.145   5.110  0.1035  0.1603 -0.1274
    1DPPC   C4B  936  19.360   8.224   4.713  0.1984 -0.0012 -0.0565
    1DPPC   NC3  937  17.907  12.728   6.978  0.1623  0.0125 -0.2316
    1DPPC   PO4  938  18.291  12.767   6.878 -0.3524  0.0083  0.0722
    1DPPC   GL1  939  18.293  13.028   6.576  0.0745  0.3506 -0.1264
    1DPPC   GL2  940  18.049  13.086   6.478 -0.1535 -0.0261 -0.3603
    1DPPC   C1A  941  18.562  13.045   6.249  0.0043 -0.0096 -0.0991
    1DPPC   C2A  942  18.801  13.427   5.980 -0.0439  0.1481  0.0631
    1DPPC   C3A  943  19.043  13.452   5.667 -0.2456  0.0063  0.0631
    1DPPC   C4A  944  19.074  13.506   5.236 -0.3369 -0.2177  0.2176
    1DPPC   C1B  945  18.111  12.997   6.047 -0.4229 -0.3813  0.1193
    1DPPC   C2B  946  18.342  13.295   5.709 -0.0973 -0.0532 -0.0602
    1DPPC   C3B  947  18.642  13.286   5.349 -0.1241 -0.0023 -0.1053
    1DPPC   C4B  948  18.653  13.313   4.959  0.0235  0.1205  0.1707
    1DPPC   NC3  949  10.802  18.792   6.807 -0.0068 -0.0200 -0.2118
    1DPPC   PO4  950  10.879  19.208   6.948 -0.2958  0.1658  0.1723
    1DPPC   GL1  951  11.075  19.076   6.511 -0.0671  0.1628  0.0392
    1DPPC   GL2  952  10.877  18.993   6.352 -0.2763  0.0415  0.0215
    1DPPC   C1A  953  11.382  19.116   6.113  0.0252  0.3072 -0.2223
    1DPPC   C2A  954  11.427  18.968   5.702  0.0409 -0.1318 -0.2984
    1DPPC   C3A  955  11.637  18.899   5.354  0.0287 -0.2876  0.1611
    1DPPC   C4A  956  12.091  18.816   5.093 -0.2707 -0.0471  0.4553
    1DPPC   C1B  957  10.913  19.005   5.945 -0.0101  0.0248  0.3031
    1DPPC   C2B  958  10.966  18.856   5.572  0.0133 -0.0502  0.2265
    1DPPC   C3B  959  11.180  18.791   5.101 -0.4499 -0.0467  0.5350
    1DPPC   C4B  960  11.614  18.998   4.898 -0.0558  0.0315 -0.1299
    1DPPC   NC3  961  14.907  14.340   6.959  0.0849  0.1671 -0.1211
    1DPPC   PO4  962  14.559  14.384   6.699 -0.2014  0.0659 -0.0051
    1DPPC   GL1  963  14.896  14.386   6.434 -0.0532  0.0290  0.0213
    1DPPC   GL2  964  15.253  14.300   6.523 -0.2452 -0.0123  0.0403
    1DPPC   C1A  965  14.853  14.394   5.944 -0.2193 -0.0682  0.1952
    1DPPC   C2A  966  14.894  14.436   5.500  0.2734  0.1668 -0.0886
    1DPPC   C3A  967  14.789  14.256   5.169  0.0445 -0.1209 -0.0969
    1DPPC   C4A  968  14.415  14.396   4.887 -0.1268  0.0988 -0.0535
    1DPPC   C1B  969  15.334  14.499   6.172  0.0131  0.0569  0.0353
    1DPPC   C2B  970  15.357  14.505   5.657 -0.0220  0.2538 -0.0822
    1DPPC   C3B  971  15.296  14.336   5.241  0.0200  0.2023  0.2696
    1DPPC   C4B  972  15.174  14.399   4.845 -0.1043  0.0419  0.0043
    1DPPC   NC3  973  15.916  14.545   6.946  0.1420  0.0171  0.1515
    1DPPC   PO4  974  15.441  14.556   6.898 -0.0198  0.0729 -0.0641
    1DPPC   GL1  975  15.205  14.779   6.611 -0.3771  0.2597  0.0190
    1DPPC   GL2  976  15.412  14.944   6.498 -0.4009  0.1229  0.1013
    1DPPC   C1A  977  14.932  14.860   6.294 -0.1960  0.1282 -0.0818
    1DPPC   C2A  978  14.950  14.961   5.912  0.2130 -0.0406 -0.0758
    1DPPC   C3A  979  15.028  14.928   5.516  0.0294  0.1661  0.2853
    1DPPC   C4A  980  14.926  14.789   5.116  0.1146  0.5028  0.4154
    1DPPC   C1B  981  15.501  14.928   6.063 -0.0538  0.0433 -0.0962
    1DPPC   C2B  982  15.562  15.017   5.648 -0.0522  0.0820  0.1816
    1DPPC   C3B  983  15.483  15.089   5.198 -0.3657 -0.0016  0.2004
    1DPPC   C4B  984  15.269  14.970   4.763 -0.2129  0.0544 -0.2756
    1DPPC   NC3  985  12.502  17.623   7.177 -0.4160  0.1424  0.1528
    1DPPC   PO4  986  12.881  17.614   6.971 -0.0605  0.3122 -0.0589
    1DPPC   GL1  987  12.964  17.486   6.584 -0.4483 -0.2213  0.0124
    1DPPC   GL2  988  13.022  17.155   6.564 -0.0949 -0.0738 -0.0368
    1DPPC   C1A  989  12.881  17.516   6.224 -0.1285 -0.2937 -0.1196
    1DPPC   C2A  990  12.889  17.358   5.848 -0.0449  0.0522 -0.1064
    1DPPC   C3A  991  12.847  17.577   5.381 -0.0231 -0.0448 -0.0737
    1DPPC   C4A  992  12.553  17.506   4.972 -0.0261 -0.1933 -0.0451
    1DPPC   C1B  993  13.206  17.104   6.105  0.0526  0.2131 -0.2102
    1DPPC   C2B  994  13.214  17.036   5.723 -0.1176  0.1257 -0.0211
    1DPPC   C3B  995  12.962  17.089   5.339 -0.0367  0.2013  0.1516
    1DPPC   C4B  996  12.908  17.208   4.871  0.0305  0.2295 -0.0238
    1DPPC   NC3  997  15.965  22.338   6.632 -0.1115  0.0660  0.0299
    1DPPC   PO4  998  15.758  22.655   6.412  0.3908 -0.0906 -0.1621
    1DPPC   GL1  999  15.495  22.841   6.018  0.1652 -0.1311 -0.3433
    1DPPC   GL2 1000  15.206  22.865   6.308  0.0622  0.1089 -0.0486
    1DPPC   C1A 1001  15.336  22.614   5.593  0.1777  0.2515  0.0338
    1DPPC   C2A 1002  15.304  22.637   5.151 -0.0659  0.0953  0.2979
    1DPPC   C3A 1003  15.082  22.563   4.694 -0.1746 -0.1240  0.2623
    1DPPC   C4A 1004  15.107  22.618   4.251  0.2515  0.3210 -0.3089
    1DPPC   C1B 1005  15.026  23.055   5.923  0.1397 -0.1002 -0.1262
    1DPPC   C2B 1006  15.031  23.054   5.450  0.3053 -0.2288 -0.1308
    1DPPC   C3B 1007  14.977  23.206   5.023 -0.1060 -0.1143  0.1827
    1DPPC   C4B 1008  15.159  23.022   4.776  0.1333  0.0022  0.1337
    1DPPC   NC3 1009  15.405   7.805   7.707 -0.1266  0.2007 -0.1138
    1DPPC   PO4 1010  15.523   7.441   7.453 -0.2659 -0.2163  0.0041
    1DPPC   GL1 1011  15.258   7.452   7.161  0.1429 -0.0461  0.1474
    1DPPC   GL2 1012  15.029   7.796   7.204  0.0682 -0.0948 -0.1295
    1DPPC   C1A 1013  15.312   7.448   6.707 -0.1831 -0.3573 -0.1897
    1DPPC   C2A 1014  15.210   7.398   6.326 -0.2338 -0.2773 -0.0732
    1DPPC   C3A 1015  14.906   7.375   6.055 -0.0687 -0.2723 -0.0273
    1DPPC   C4A 1016  14.566   7.421   5.798 -0.1600 -0.2666  0.1082
    1DPPC   C1B 1017  15.222   7.974   6.848  0.0441  0.0911  0.0967
    1DPPC   C2B 1018  15.163   7.946   6.397 -0.2023 -0.2885 -0.1412
    1DPPC   C3B 1019  14.902   7.929   6.066 -0.0877 -0.2869  0.2519
    1DPPC   C4B 1020  14.925   7.798   5.713  0.0232  0.1404  0.0413
    1DPPC   NC3 1021  20.155   9.898   6.997  0.0478 -0.2186 -0.1997
    1DPPC   PO4 1022  19.947  10.376   7.013 -0.0876  0.0104  0.2233
    1DPPC   GL1 1023  19.836  10.228   6.673 -0.1250 -0.3356  0.2555
    1DPPC   GL2 1024  20.154  10.051   6.472  0.1068  0.3117 -0.1324
    1DPPC   C1A 1025  19.764  10.263   6.264 -0.1923  0.0493 -0.1440
    1DPPC   C2A 1026  19.771  10.349   5.823 -0.1612 -0.0182 -0.0107
    1DPPC   C3A 1027  19.940  10.351   5.435 -0.2126 -0.0253 -0.2282
    1DPPC   C4A 1028  19.816  10.275   4.932  0.2077 -0.1985 -0.2087
    1DPPC   C1B 1029  20.201   9.995   6.091  0.0521  0.3239 -0.3129
    1DPPC   C2B 1030  20.252   9.893   5.618 -0.0597 -0.3620 -0.2568
    1DPPC   C3B 1031  20.303  10.111   5.177 -0.0769  0.1092  0.0187
    1DPPC   C4B 1032  20.444   9.891   4.789  0.0739 -0.0800 -0.0097
    1DPPC   NC3 1033  17.336  17.282   7.206  0.0504 -0.2695  0.0694
    1DPPC   PO4 1034  17.090  16.900   7.273  0.1892  0.0358 -0.3544
    1DPPC   GL1 1035  17.047  16.868   6.904  0.0162 -0.3239 -0.1250
    1DPPC   GL2 1036  16.843  17.138   6.797 -0.1249  0.0391  0.0495
    1DPPC   C1A 1037  17.290  16.971   6.492 -0.1289  0.1294 -0.0013
    1DPPC   C2A 1038  17.428  17.064   6.076 -0.1320  0.2581  0.1323
    1DPPC   C3A 1039  17.547  17.271   5.642 -0.3701 -0.0628 -0.0237
    1DPPC   C4A 1040  18.000  17.450   5.460 -0.2861  0.0769 -0.1333
    1DPPC   C1B 1041  17.067  17.402   6.406 -0.4981  0.0132 -0.1218
    1DPPC   C2B 1042  17.165  17.544   5.953  0.0105 -0.1398 -0.1333
    1DPPC   C3B 1043  17.249  17.762   5.596  0.2746  0.0774 -0.2274
    1DPPC   C4B 1044  17.375  17.987   5.398  0.0571 -0.1784 -0.2023
    1DPPC   NC3 1045   9.080  14.057   6.772 -0.0939 -0.3736 -0.2029
    1DPPC   PO4 1046   8.706  14.245   6.818  0.0107  0.1292 -0.0614
    1DPPC   GL1 1047   8.689  14.147   6.350  0.2058  0.2657  0.1455
    1DPPC   GL2 1048   8.956  14.240   6.189 -0.0373  0.0187 -0.0874
    1DPPC   C1A 1049   8.418  14.280   6.031  0.3439  0.2499 -0.0378
    1DPPC   C2A 1050   8.446  14.337   5.673  0.1369 -0.0877 -0.0122
    1DPPC   C3A 1051   8.428  14.365   5.305  0.1745 -0.0640 -0.0675
    1DPPC   C4A 1052   8.571  14.353   4.851 -0.1117 -0.1744 -0.0067
    1DPPC   C1B 1053   8.871  14.082   5.847 -0.1312  0.0654  0.0933
    1DPPC   C2B 1054   8.888  13.979   5.448  0.2038  0.2279  0.1228
    1DPPC   C3B 1055   8.997  14.025   5.065  0.0177 -0.0562 -0.1219
    1DPPC   C4B 1056   9.015  14.095   4.714  0.2112  0.0146 -0.0819
    1DPPC   NC3 1057  14.249  10.433   7.453 -0.1175 -0.2196  0.1966
    1DPPC   PO4 1058  14.100  10.920   7.374 -0.3362 -0.0329  0.0875
    1DPPC   GL1 1059  14.083  11.112   6.960  0.2008 -0.1071  0.1397
    1DPPC   GL2 1060  13.830  11.390   6.938  0.0917 -0.1326  0.1054
    1DPPC   C1A 1061  14.029  11.219   6.542  0.1736  0.0093  0.3506
    1DPPC   C2A 1062  14.015  11.258   6.111 -0.0189  0.3940 -0.2044
    1DPPC   C3A 1063  13.999  11.188   5.632  0.1960  0.3144 -0.1425
    1DPPC   C4A 1064  13.748  11.102   5.271 -0.3063  0.0373  0.3399
    1DPPC   C1B 1065  13.866  11.736   6.655 -0.1083 -0.0332 -0.0635
    1DPPC   C2B 1066  13.878  11.703   6.307  0.0686 -0.0390  0.1111
    1DPPC   C3B 1067  13.833  11.658   5.852 -0.1739 -0.1230 -0.1680
    1DPPC   C4B 1068  13.891  11.597   5.451 -0.2549 -0.2464 -0.1882
    1DPPC   NC3 1069  15.943  17.255   7.482  0.0439 -0.2470  0.0959
    1DPPC   PO4 1070  15.697  16.958   7.225 -0.2644  0.2829 -0.0990
    1DPPC   GL1 1071  15.827  16.999   6.785  0.0061 -0.0896  0.3207
    1DPPC   GL2 1072  15.542  16.796   6.700  0.0025  0.0769 -0.0284
    1DPPC   C1A 1073  16.016  16.813   6.471 -0.0206  0.0648  0.1202
    1DPPC   C2A 1074  16.342  17.023   6.128  0.1787  0.3711 -0.0229
    1DPPC   C3A 1075  16.370  17.089   5.728  0.0465 -0.1645  0.0287
    1DPPC   C4A 1076  16.421  17.198   5.276  0.1740  0.0224  0.0530
    1DPPC   C1B 1077  15.599  16.989   6.267 -0.0121  0.1828  0.2005
    1DPPC   C2B 1078  15.786  16.957   5.890  0.0404  0.4154 -0.0165
    1DPPC   C3B 1079  15.950  16.994   5.475 -0.0342 -0.0098 -0.4177
    1DPPC   C4B 1080  15.962  16.758   5.095  0.1924 -0.3851 -0.1358
    1DPPC   NC3 1081  23.778  17.130   6.982 -0.2256  0.2734 -0.2543
    1DPPC   PO4 1082  23.588  17.553   6.895 -0.0852  0.0751  0.3365
    1DPPC   GL1 1083  23.621  17.471   6.485  0.1018  0.0688 -0.0315
    1DPPC   GL2 1084  23.281  17.558   6.391  0.0137 -0.2749 -0.0251
    1DPPC   C1A 1085  23.672  17.502   6.003  0.3491 -0.1140  0.4346
    1DPPC   C2A 1086  23.909  17.623   5.650  0.0545  0.0868  0.0486
    1DPPC   C3A 1087  24.223  17.678   5.296 -0.2687  0.2042  0.3920
    1DPPC   C4A 1088  24.481  17.649   4.925 -0.0461  0.0863  0.0207
    1DPPC   C1B 1089  23.205  17.744   5.995  0.0078  0.0178  0.0565
    1DPPC   C2B 1090  23.340  17.640   5.607  0.0365 -0.1398  0.0261
    1DPPC   C3B 1091  23.202  17.839   5.156  0.0734  0.0760  0.0300
    1DPPC   C4B 1092  23.060  18.016   4.764  0.2975  0.1785 -0.0407
    1DPPC   NC3 1093  20.278  22.786   6.613 -0.2353 -0.0909 -0.0859
    1DPPC   PO4 1094  19.909  22.943   6.814  0.1612  0.1505 -0.0669
    1DPPC   GL1 1095  19.840  23.049   6.423  0.0479  0.1518  0.2244
    1DPPC   GL2 1096  19.887  23.359   6.313 -0.0200  0.0262  0.0350
    1DPPC   C1A 1097  19.807  22.996   5.983 -0.0348 -0.0470  0.0624
    1DPPC   C2A 1098  19.797  23.076   5.481 -0.0168 -0.1977 -0.2639
    1DPPC   C3A 1099  20.038  22.976   5.136 -0.4170 -0.0724 -0.0730
    1DPPC   C4A 1100  20.325  22.925   4.784 -0.2650 -0.4636  0.1754
    1DPPC   C1B 1101  19.974  23.487   5.920 -0.3035 -0.0546  0.1579
    1DPPC   C2B 1102  20.132  23.394   5.560 -0.0795 -0.1536  0.1778
    1DPPC   C3B 1103  20.271  23.423   5.038 -0.2030 -0.1054  0.1736
    1DPPC   C4B 1104  20.434  23.483   4.641 -0.1180  0.3655  0.3210
    1DPPC   NC3 1105  19.115  14.594   6.990 -0.1947 -0.1563  0.0847
    1DPPC   PO4 1106  19.519  14.675   6.979 -0.1176  0.2141 -0.1195
    1DPPC   GL1 1107  19.541  14.473   6.682 -0.2400 -0.1035 -0.2735
    1DPPC   GL2 1108  19.243  14.397   6.573 -0.1609  0.0507  0.0580
    1DPPC   C1A 1109  19.694  14.486   6.299 -0.0351  0.0086  0.2006
    1DPPC   C2A 1110  19.578  14.664   5.842  0.0497 -0.0505 -0.1419
    1DPPC   C3A 1111  19.487  14.705   5.447  0.0983  0.3449  0.0233
    1DPPC   C4A 1112  19.601  14.953   5.055 -0.1917  0.3106  0.0565
    1DPPC   C1B 1113  19.278  14.184   6.187 -0.1437  0.0904 -0.5487
    1DPPC   C2B 1114  19.271  14.294   5.740 -0.2462  0.2772 -0.2787
    1DPPC   C3B 1115  19.185  14.334   5.313  0.0280  0.2510 -0.1058
    1DPPC   C4B 1116  18.990  14.692   5.122 -0.0897 -0.1713  0.0438
    1DPPC   NC3 1117  27.954  21.274   6.084  0.2645  0.2814  0.2777
    1DPPC   PO4 1118  28.439  21.353   6.191  0.1080  0.1962 -0.0427
    1DPPC   GL1 1119  28.354  21.588   5.893  0.1982 -0.2195  0.2274
    1DPPC   GL2 1120  28.589  21.460   5.555  0.1249 -0.0905  0.0757
    1DPPC   C1A 1121  28.305  21.963   5.549 -0.2137 -0.0273  0.0089
    1DPPC   C2A 1122  28.308  22.118   5.136  0.0002 -0.1144  0.0769
    1DPPC   C3A 1123  28.476  21.974   4.750  0.2004 -0.1954 -0.3378
    1DPPC   C4A 1124  28.676  21.587   4.495 -0.2597  0.1596  0.0176
    1DPPC   C1B 1125  28.354  21.423   5.227  0.0536  0.0455  0.2078
    1DPPC   C2B 1126  28.166  21.578   4.800  0.0964  0.0048 -0.1406
    1DPPC   C3B 1127  28.163  21.491   4.396 -0.0375  0.1037 -0.0275
    1DPPC   C4B 1128  28.362  21.583   4.026 -0.1609  0.1364  0.0486
    1DPPC   NC3 1129  23.440  16.561   6.500  0.0382  0.0552  0.0477
    1DPPC   PO4 1130  23.455  16.074   6.512  0.1034  0.0545  0.0998
    1DPPC   GL1 1131  23.415  16.199   5.996  0.1198  0.1225 -0.1397
    1DPPC   GL2 1132  23.075  16.185   5.873 -0.4109  0.0471 -0.3284
    1DPPC   C1A 1133  23.534  16.325   5.585 -0.0555 -0.2812  0.1522
    1DPPC   C2A 1134  23.573  16.576   5.125 -0.0630  0.0142  0.1216
    1DPPC   C3A 1135  23.809  16.899   4.927  0.3609 -0.0575 -0.2340
    1DPPC   C4A 1136  23.640  17.103   4.809 -0.0055  0.0492 -0.2665
    1DPPC   C1B 1137  23.046  16.183   5.380 -0.0230 -0.2551 -0.2303
    1DPPC   C2B 1138  23.203  16.258   4.945  0.1995 -0.1657 -0.2254
    1DPPC   C3B 1139  23.502  16.163   4.663 -0.0015 -0.0855  0.0487
    1DPPC   C4B 1140  23.910  16.048   4.320 -0.2125 -0.6468  0.1766
    1DPPC   NC3 1141   8.899  14.713   6.858  0.0882 -0.1039  0.0839
    1DPPC   PO4 1142   9.148  14.497   6.596  0.2265 -0.1617  0.0384
    1DPPC   GL1 1143   9.421  14.380   6.327 -0.3424  0.0708  0.0399
    1DPPC   GL2 1144   9.417  14.060   6.372  0.1792  0.2129 -0.2349
    1DPPC   C1A 1145   9.363  14.425   5.882  0.3703 -0.3352  0.1786
    1DPPC   C2A 1146   9.525  14.574   5.468  0.0221  0.1527  0.1022
    1DPPC   C3A 1147   9.493  14.437   4.953  0.3741  0.1253  0.2028
    1DPPC   C4A 1148   9.458  14.436   4.583 -0.0319  0.0543  0.2006
    1DPPC   C1B 1149   9.364  13.961   5.964  0.2195 -0.0567 -0.0559
    1DPPC   C2B 1150   9.377  14.063   5.475 -0.0514  0.0485  0.0277
    1DPPC   C3B 1151   9.493  13.931   5.098 -0.2225  0.2373  0.0581
    1DPPC   C4B 1152   9.488  13.852   4.766  0.1167  0.0825 -0.0862
    1DPPC   NC3 1153  18.887  10.501   7.185  0.0699  0.1109  0.1929
    1DPPC   PO4 1154  18.998  10.121   6.852 -0.1853  0.0684 -0.1939
    1DPPC   GL1 1155  18.615  10.332   6.769  0.3790  0.0275  0.2060
    1DPPC   GL2 1156  18.434  10.071   6.660 -0.1126  0.1549 -0.1742
    1DPPC   C1A 1157  18.478  10.553   6.360  0.1181 -0.3148 -0.0605
    1DPPC   C2A 1158  18.439  10.727   5.994 -0.2859 -0.3283 -0.1396
    1DPPC   C3A 1159  18.348  10.931   5.545 -0.2843  0.0239 -0.1129
    1DPPC   C4A 1160  18.250  11.038   5.173  0.0395 -0.2047 -0.0501
    1DPPC   C1B 1161  18.192  10.142   6.296  0.1518  0.0417  0.1460
    1DPPC   C2B 1162  18.043  10.140   5.870  0.2902  0.2662 -0.0426
    1DPPC   C3B 1163  17.975  10.089   5.534 -0.0570 -0.0031  0.1710
    1DPPC   C4B 1164  18.057  10.043   5.095  0.0268  0.2627  0.2201
    1DPPC   NC3 1165  13.368  19.192   7.113 -0.1381  0.3132  0.0921
    1DPPC   PO4 1166  12.998  18.918   6.937 -0.0764  0.4065 -0.1315
    1DPPC   GL1 1167  13.079  19.258   6.723  0.4887 -0.0083  0.0206
    1DPPC   GL2 1168  13.392  19.317   6.610 -0.1264 -0.0278  0.2793
    1DPPC   C1A 1169  12.937  19.307   6.346 -0.1439 -0.0949 -0.1928
    1DPPC   C2A 1170  12.801  19.106   6.045 -0.1606  0.0661  0.0245
    1DPPC   C3A 1171  12.847  19.274   5.549  0.1878  0.1247  0.2739
    1DPPC   C4A 1172  12.915  19.266   5.090  0.2426 -0.2483 -0.0365
    1DPPC   C1B 1173  13.710  19.295   6.243  0.1100  0.0791  0.3494
    1DPPC   C2B 1174  14.004  19.088   5.889 -0.2652  0.0194 -0.2145
    1DPPC   C3B 1175  13.886  19.086   5.470  0.1774  0.0076 -0.0986
    1DPPC   C4B 1176  13.879  19.167   5.000 -0.0956 -0.0831 -0.0312
    1DPPC   NC3 1177  15.747  10.259   7.551  0.1216 -0.4475 -0.0854
    1DPPC   PO4 1178  15.523  10.617   7.401 -0.0719  0.1879  0.2957
    1DPPC   GL1 1179  15.534  10.667   6.980 -0.1070 -0.0509  0.1106
    1DPPC   GL2 1180  15.543  10.877   6.851  0.0279 -0.3170 -0.1745
    1DPPC   C1A 1181  15.237  10.446   6.566 -0.0323 -0.2269 -0.4833
    1DPPC   C2A 1182  15.192  10.361   6.106  0.0823 -0.0977  0.2244
    1DPPC   C3A 1183  15.043  10.293   5.703  0.1201  0.0206  0.3044
    1DPPC   C4A 1184  15.049  10.481   5.293 -0.1506  0.1862 -0.1973
    1DPPC   C1B 1185  15.560  10.735   6.354 -0.2558 -0.3823 -0.1325
    1DPPC   C2B 1186  15.461  10.704   5.880  0.1258 -0.1054  0.0599
    1DPPC   C3B 1187  15.547  10.640   5.409  0.3182  0.0566 -0.2226
    1DPPC   C4B 1188  15.434  10.630   4.946  0.1392  0.0398  0.0416
    1DPPC   NC3 1189  18.187   7.171   7.071  0.2603  0.0626 -0.1490
    1DPPC   PO4 1190  17.795   6.997   7.151 -0.0341 -0.5261 -0.1565
    1DPPC   GL1 1191  17.867   6.797   6.730  0.3054  0.0555  0.0800
    1DPPC   GL2 1192  17.945   6.649   6.488  0.4531 -0.0338  0.0293
    1DPPC   C1A 1193  17.470   6.749   6.319  0.1439  0.0352 -0.3483
    1DPPC   C2A 1194  17.437   6.734   5.844  0.4134 -0.0228  0.1234
    1DPPC   C3A 1195  17.337   6.779   5.461  0.1066  0.0331  0.0576
    1DPPC   C4A 1196  17.620   7.113   5.323  0.2851 -0.1601 -0.0643
    1DPPC   C1B 1197  18.127   6.681   6.105  0.1685  0.1455 -0.0143
    1DPPC   C2B 1198  18.286   6.822   5.805 -0.2180  0.0019  0.3615
    1DPPC   C3B 1199  18.533   6.770   5.590  0.1344 -0.0120  0.1604
    1DPPC   C4B 1200  18.517   6.678   5.148  0.0080  0.3585  0.3266
    1DPPC   NC3 1201  20.355  15.733   7.005 -0.0002 -0.0995  0.0291
    1DPPC   PO4 1202  20.166  15.352   6.778 -0.2311 -0.3786  0.2893
    1DPPC   GL1 1203  19.983  15.263   6.418  0.1437 -0.0445 -0.0106
    1DPPC   GL2 1204  19.829  15.002   6.373 -0.1199 -0.1743  0.0251
    1DPPC   C1A 1205  19.999  15.513   6.123  0.0176  0.0157 -0.1077
    1DPPC   C2A 1206  19.950  15.517   5.672 -0.0423  0.1871 -0.0069
    1DPPC   C3A 1207  19.930  15.371   5.260  0.0034  0.1445 -0.3727
    1DPPC   C4A 1208  19.853  15.302   4.786 -0.1279 -0.1082 -0.1884
    1DPPC   C1B 1209  19.878  15.000   5.969 -0.0358 -0.0214  0.2586
    1DPPC   C2B 1210  19.669  15.121   5.607  0.1291 -0.1175 -0.0700
    1DPPC   C3B 1211  19.408  15.283   5.309 -0.1854 -0.0631  0.0386
    1DPPC   C4B 1212  19.375  15.528   4.988 -0.0206  0.3255 -0.0588
    1DPPC   NC3 1213   9.856  15.160   6.982  0.0646 -0.1003 -0.1017
    1DPPC   PO4 1214  10.176  15.411   6.867  0.0143  0.2607  0.0163
    1DPPC   GL1 1215  10.390  15.243   6.481 -0.0222  0.1174  0.1114
    1DPPC   GL2 1216  10.580  14.919   6.497 -0.3876  0.1184  0.4166
    1DPPC   C1A 1217  10.072  15.144   6.135  0.1035 -0.1334 -0.1678
    1DPPC   C2A 1218  10.195  15.129   5.741 -0.2194  0.0391  0.1078
    1DPPC   C3A 1219  10.282  15.168   5.319  0.0620 -0.0401  0.2305
    1DPPC   C4A 1220  10.167  15.280   4.924 -0.2029  0.0247  0.0047
    1DPPC   C1B 1221  10.515  14.946   6.061 -0.2469  0.3412 -0.0274
    1DPPC   C2B 1222  10.656  14.882   5.728 -0.0716  0.0873  0.0528
    1DPPC   C3B 1223  10.719  14.936   5.311 -0.0612  0.0755 -0.1424
    1DPPC   C4B 1224  10.561  14.971   4.922  0.0059 -0.1370  0.1487
    1DPPC   NC3 1225  16.504  19.924   7.646 -0.3287 -0.0072 -0.0770
    1DPPC   PO4 1226  16.087  20.054   7.352  0.2166 -0.0849 -0.1107
    1DPPC   GL1 1227  16.019  19.964   6.879  0.0627  0.2021 -0.0769
    1DPPC   GL2 1228  16.215  20.211   6.719 -0.0338  0.1031  0.0536
    1DPPC   C1A 1229  15.762  19.934   6.568  0.1866  0.3010  0.0617
    1DPPC   C2A 1230  15.525  20.038   6.236  0.3826 -0.3893 -0.3213
    1DPPC   C3A 1231  15.437  19.923   5.863  0.0321  0.2265 -0.0097
    1DPPC   C4A 1232  15.788  19.955   5.471 -0.0915 -0.2591 -0.2055
    1DPPC   C1B 1233  16.541  20.143   6.595  0.1794 -0.1273  0.0052
    1DPPC   C2B 1234  16.938  19.966   6.475 -0.0635 -0.0296 -0.1487
    1DPPC   C3B 1235  16.947  19.886   6.030 -0.2124 -0.0075 -0.2655
    1DPPC   C4B 1236  17.163  19.635   5.758  0.0129  0.3141 -0.0988
    1DPPC   NC3 1237  21.605  14.356   6.339 -0.1552 -0.2286 -0.4241
    1DPPC   PO4 1238  21.796  14.704   6.277 -0.0853 -0.1297 -0.1579
    1DPPC   GL1 1239  21.892  14.466   5.877 -0.0632 -0.0462  0.1807
    1DPPC   GL2 1240  21.969  14.123   5.848  0.1420  0.0867 -0.0123
    1DPPC   C1A 1241  21.659  14.479   5.548 -0.0761  0.1775 -0.0656
    1DPPC   C2A 1242  21.679  14.289   5.147  0.1440 -0.0558  0.1169
    1DPPC   C3A 1243  21.521  14.129   4.770 -0.0914  0.0057 -0.0704
    1DPPC   C4A 1244  21.711  13.855   4.463  0.0937  0.0181  0.0339
    1DPPC   C1B 1245  21.832  14.011   5.522  0.0209  0.2071 -0.2286
    1DPPC   C2B 1246  22.014  13.864   5.153 -0.0909 -0.0125  0.0759
    1DPPC   C3B 1247  22.153  13.976   4.722 -0.0949  0.2269  0.2885
    1DPPC   C4B 1248  22.493  13.841   4.486 -0.1543 -0.0901  0.1153
    1DPPC   NC3 1249  12.347  23.775   7.478 -0.1019 -0.0539 -0.3771
    1DPPC   PO4 1250  12.259  23.789   7.044  0.2250 -0.2487  0.0135
    1DPPC   GL1 1251  12.343  23.771   6.552 -0.4560 -0.0954  0.3532
    1DPPC   GL2 1252  12.061  23.938   6.272  0.1086 -0.1108  0.0896
    1DPPC   C1A 1253  12.481  23.621   6.100 -0.0862 -0.2519 -0.1674
    1DPPC   C2A 1254  12.546  23.830   5.676  0.4697 -0.3571  0.1645
    1DPPC   C3A 1255  12.372  23.798   5.297  0.3432 -0.1461 -0.1661
    1DPPC   C4A 1256  12.292  23.638   4.925  0.2382  0.1391 -0.0846
    1DPPC   C1B 1257  12.015  23.900   5.794 -0.0801  0.0309  0.0067
    1DPPC   C2B 1258  11.890  23.717   5.394  0.0205  0.1564  0.0080
    1DPPC   C3B 1259  11.714  23.510   5.020 -0.0421 -0.0941  0.0933
    1DPPC   C4B 1260  11.706  23.073   4.726  0.0140  0.0994  0.0601
    1DPPC   NC3 1261   8.297  17.606   6.496 -0.1203 -0.1365 -0.0534
    1DPPC   PO4 1262   8.602  17.901   6.473  0.0962 -0.1079 -0.1702
    1DPPC   GL1 1263   8.821  18.038   6.074  0.0785 -0.2932 -0.2945
    1DPPC   GL2 1264   8.508  18.171   5.953  0.1957 -0.0288 -0.1050
    1DPPC   C1A 1265   9.061  17.821   5.848 -0.4614 -0.0684  0.0167
    1DPPC   C2A 1266   8.918  17.448   5.730  0.1071  0.0641 -0.0235
    1DPPC   C3A 1267   8.827  17.457   5.297 -0.2956 -0.1031  0.1798
    1DPPC   C4A 1268   8.669  17.618   4.893  0.1593  0.1124  0.0986
    1DPPC   C1B 1269   8.710  18.188   5.593  0.2182 -0.1917 -0.2044
    1DPPC   C2B 1270   8.917  17.992   5.372 -0.1452  0.1840 -0.0189
    1DPPC   C3B 1271   9.051  17.917   5.062 -0.0478  0.0711  0.1490
    1DPPC   C4B 1272   9.163  17.691   4.672 -0.2263  0.2977 -0.3115
    1DPPC   NC3 1273  16.171  17.906   7.385 -0.1759 -0.1020 -0.1535
    1DPPC   PO4 1274  15.822  17.720   7.314  0.2717  0.3275  0.1525
    1DPPC   GL1 1275  15.922  17.908   6.928  0.1327  0.0255  0.0159
    1DPPC   GL2 1276  16.133  18.060   6.914  0.0191 -0.1275 -0.3893
    1DPPC   C1A 1277  15.848  17.951   6.515  0.0261  0.1849  0.1345
    1DPPC   C2A 1278  15.920  18.178   6.139  0.0704 -0.2113 -0.2093
    1DPPC   C3A 1279  16.013  18.228   5.786 -0.5722 -0.0019 -0.0069
    1DPPC   C4A 1280  16.144  18.109   5.433  0.0694  0.2881 -0.1415
    1DPPC   C1B 1281  16.336  17.903   6.621  0.0154 -0.0264  0.0507
    1DPPC   C2B 1282  16.313  17.835   6.217  0.1917 -0.0692  0.1851
    1DPPC   C3B 1283  16.392  17.785   5.796  0.2159 -0.0124 -0.1987
    1DPPC   C4B 1284  16.612  17.912   5.494  0.0277  0.0501 -0.1995
    1DPPC   NC3 1285  19.809  27.422   6.931 -0.2002 -0.2184 -0.1564
    1DPPC   PO4 1286  19.529  27.773   6.844  0.0012  0.0812 -0.0857
    1DPPC   GL1 1287  19.694  27.628   6.419  0.0638 -0.2509 -0.2082
    1DPPC   GL2 1288  19.893  27.942   6.176 -0.2604 -0.1878  0.0845
    1DPPC   C1A 1289  19.638  27.448   6.078  0.0971 -0.1169 -0.0271
    1DPPC   C2A 1290  19.919  27.187   5.806  0.0396 -0.1049  0.4010
    1DPPC   C3A 1291  20.325  27.051   5.916  0.2549 -0.1214 -0.2912
    1DPPC   C4A 1292  20.682  26.977   6.125 -0.0453 -0.2896  0.0655
    1DPPC   C1B 1293  19.620  27.850   5.866 -0.0046 -0.2235  0.0352
    1DPPC   C2B 1294  19.536  27.416   5.579  0.1347 -0.0993  0.2231
    1DPPC   C3B 1295  19.778  27.270   5.276 -0.1570  0.1145 -0.1641
    1DPPC   C4B 1296  19.840  27.366   4.850  0.1018 -0.1750  0.2674
    1DPPC   NC3 1297   1.002  12.494   6.475 -0.0357 -0.3735  0.2468
    1DPPC   PO4 1298   0.905  12.779   6.132  0.1566  0.1330  0.0076
    1DPPC   GL1 1299   0.550  12.750   5.756 -0.0659  0.3087  0.0801
    1DPPC   GL2 1300   0.597  12.354   5.775  0.2950 -0.3138  0.0628
    1DPPC   C1A 1301   0.443  12.718   5.406  0.0090  0.0993 -0.1356
    1DPPC   C2A 1302   0.572  12.713   5.069 -0.0296 -0.2319 -0.0056
    1DPPC   C3A 1303   0.531  12.978   4.687  0.0706 -0.0896 -0.2451
    1DPPC   C4A 1304   0.770  12.859   4.323 -0.1842  0.0269 -0.2719
    1DPPC   C1B 1305   0.689  12.264   5.368  0.0556 -0.0004  0.1495
    1DPPC   C2B 1306   0.717  12.290   4.957 -0.0278  0.0124 -0.0571
    1DPPC   C3B 1307   0.715  12.442   4.563  0.2368 -0.4725 -0.2238
    1DPPC   C4B 1308   0.445  12.436   4.195  0.3906  0.1713  0.2814
    1DPPC   NC3 1309  14.851  10.060   7.283 -0.4301 -0.2170  0.3319
    1DPPC   PO4 1310  15.081  10.373   7.174  0.1363 -0.0639 -0.0187
    1DPPC   GL1 1311  15.056  10.020   6.834 -0.3172  0.1027 -0.4196
    1DPPC   GL2 1312  14.850   9.707   6.835  0.0907 -0.1265  0.3328
    1DPPC   C1A 1313  15.271   9.972   6.423 -0.0138 -0.2281 -0.0737
    1DPPC   C2A 1314  15.357   9.884   6.047 -0.0662 -0.1219 -0.1413
    1DPPC   C3A 1315  15.230   9.814   5.721  0.0263 -0.1112  0.2387
    1DPPC   C4A 1316  15.025   9.944   5.370  0.2149 -0.1113  0.0758
    1DPPC   C1B 1317  14.934   9.614   6.443  0.1090 -0.2078  0.0388
    1DPPC   C2B 1318  15.020   9.510   6.051 -0.3603 -0.3579  0.1520
    1DPPC   C3B 1319  15.146   9.322   5.717  0.3606  0.2814  0.3145
    1DPPC   C4B 1320  15.039   9.142   5.311  0.0337 -0.2901  0.3200
    1DPPC   NC3 1321  11.456  21.162   6.405  0.0555 -0.0421  0.0231
    1DPPC   PO4 1322  11.110  21.364   6.117  0.3985  0.0714 -0.1362
    1DPPC   GL1 1323  11.063  21.058   5.865  0.0031  0.2714 -0.2344
    1DPPC   GL2 1324  11.219  20.741   5.999 -0.3719 -0.0346 -0.0141
    1DPPC   C1A 1325  10.961  21.023   5.470 -0.2092 -0.0333  0.2614
    1DPPC   C2A 1326  11.117  21.079   5.062 -0.0249  0.1582  0.2738
    1DPPC   C3A 1327  11.385  21.257   4.710  0.2484 -0.1904 -0.4283
    1DPPC   C4A 1328  11.639  21.262   4.386 -0.0685  0.1656  0.2302
    1DPPC   C1B 1329  11.256  20.636   5.612 -0.0039 -0.3285 -0.0333
    1DPPC   C2B 1330  11.380  20.611   5.161 -0.3519 -0.3318 -0.5441
    1DPPC   C3B 1331  11.338  20.331   4.759  0.1223  0.0201  0.0634
    1DPPC   C4B 1332  11.633  20.351   4.477  0.0269  0.0745  0.1772
    1DPPC   NC3 1333  10.324  18.962   7.352  0.1644  0.0926  0.2102
    1DPPC   PO4 1334  10.305  18.858   6.945  0.1249 -0.0452 -0.0416
    1DPPC   GL1 1335  10.152  18.839   6.495  0.0188  0.1681 -0.2535
    1DPPC   GL2 1336  10.030  18.630   6.299 -0.0506  0.1942 -0.0218
    1DPPC   C1A 1337  10.460  18.737   6.052  0.2319  0.1088 -0.0493
    1DPPC   C2A 1338  10.522  18.732   5.591 -0.0147 -0.0433  0.0939
    1DPPC   C3A 1339  10.637  18.757   5.201 -0.3412 -0.3084 -0.0840
    1DPPC   C4A 1340  10.629  18.781   4.839 -0.0933  0.2022 -0.0798
    1DPPC   C1B 1341  10.111  18.423   5.964  0.0877  0.2403  0.1845
    1DPPC   C2B 1342  10.352  18.325   5.493 -0.1051  0.0721 -0.2458
    1DPPC   C3B 1343  10.420  18.347   5.088 -0.0011  0.0652  0.1615
    1DPPC   C4B 1344  10.453  18.230   4.703 -0.0563  0.2118 -0.0167
    1DPPC   NC3 1345  21.400  13.089   7.200  0.0831  0.1225  0.1877
    1DPPC   PO4 1346  21.230  13.139   6.738  0.1144 -0.4272  0.2396
    1DPPC   GL1 1347  21.072  13.111   6.291  0.1017 -0.2287 -0.1082
    1DPPC   GL2 1348  20.587  13.181   6.306 -0.2985  0.1193  0.0042
    1DPPC   C1A 1349  21.148  13.047   5.917  0.0381  0.0052 -0.0100
    1DPPC   C2A 1350  21.054  12.777   5.560  0.0740  0.2319  0.1552
    1DPPC   C3A 1351  21.281  12.657   5.237  0.1027 -0.0281 -0.0594
    1DPPC   C4A 1352  21.573  12.863   4.934  0.3155  0.1230 -0.2546
    1DPPC   C1B 1353  20.699  13.093   5.917 -0.0887 -0.0548 -0.0068
    1DPPC   C2B 1354  20.559  13.059   5.506 -0.3452 -0.0113 -0.2431
    1DPPC   C3B 1355  20.456  13.080   5.064 -0.1205  0.4496  0.2299
    1DPPC   C4B 1356  20.480  13.165   4.609  0.3750  0.2571 -0.2341
    1DPPC   NC3 1357   9.315  24.133   6.795  0.1569  0.1789  0.1423
    1DPPC   PO4 1358   9.096  24.075   6.388  0.2029  0.2398  0.1311
    1DPPC   GL1 1359   9.307  24.282   6.027 -0.1430 -0.0273 -0.0147
    1DPPC   GL2 1360   9.143  24.670   6.061  0.0581  0.1520  0.0481
    1DPPC   C1A 1361   9.256  24.387   5.585 -0.0221  0.1840  0.1756
    1DPPC   C2A 1362   9.598  24.606   5.332 -0.0891 -0.0769 -0.1518
    1DPPC   C3A 1363   9.983  24.429   5.111  0.0488 -0.1317 -0.0668
    1DPPC   C4A 1364  10.285  24.249   4.968  0.0919  0.2261  0.0390
    1DPPC   C1B 1365   9.001  24.858   5.703 -0.1490  0.1106 -0.1186
    1DPPC   C2B 1366   9.034  24.979   5.286  0.0979 -0.0210  0.1562
    1DPPC   C3B 1367   8.861  24.837   4.853 -0.0726 -0.0107 -0.2174
    1DPPC   C4B 1368   8.557  24.659   4.537  0.1009  0.3400  0.1072
    1DPPC   NC3 1369  16.539  18.655   7.618  0.1729 -0.1893  0.4375
    1DPPC   PO4 1370  16.109  18.467   7.395 -0.0367  0.0198 -0.0983
    1DPPC   GL1 1371  16.110  18.648   7.014 -0.0569 -0.1849 -0.1224
    1DPPC   GL2 1372  15.802  18.428   6.909 -0.0954 -0.0182 -0.1885
    1DPPC   C1A 1373  16.197  18.915   6.623  0.1600 -0.0877  0.2246
    1DPPC   C2A 1374  16.442  18.876   6.294  0.2613 -0.1092 -0.4181
    1DPPC   C3A 1375  16.707  18.880   5.950 -0.1224  0.0715 -0.0684
    1DPPC   C4A 1376  16.784  18.811   5.491  0.5499 -0.2726  0.2180
    1DPPC   C1B 1377  15.862  18.523   6.500 -0.2786  0.1027 -0.1928
    1DPPC   C2B 1378  16.021  18.665   6.154 -0.0211  0.1710 -0.1208
    1DPPC   C3B 1379  16.102  18.747   5.798 -0.1572 -0.0139 -0.0993
    1DPPC   C4B 1380  15.910  18.940   5.549 -0.1757  0.3372  0.1145
    1DPPC   NC3 1381  21.727  16.603   6.892 -0.1087  0.0924  0.1505
    1DPPC   PO4 1382  21.850  16.088   6.695  0.2372 -0.0408  0.1412
    1DPPC   GL1 1383  21.633  15.965   6.409 -0.3119 -0.2179  0.2756
    1DPPC   GL2 1384  21.365  15.780   6.255 -0.0793  0.0950 -0.0068
    1DPPC   C1A 1385  21.815  16.138   6.030  0.0619 -0.0558 -0.2423
    1DPPC   C2A 1386  22.130  16.179   5.681  0.0972  0.0165 -0.0965
    1DPPC   C3A 1387  21.919  16.402   5.324  0.1249 -0.4397 -0.1051
    1DPPC   C4A 1388  21.525  16.599   5.155  0.0271  0.0902 -0.0617
    1DPPC   C1B 1389  21.401  15.966   5.878  0.1181 -0.0050  0.0726
    1DPPC   C2B 1390  21.621  16.097   5.578 -0.0544  0.1064  0.2257
    1DPPC   C3B 1391  21.803  15.978   5.163  0.3358  0.0778 -0.1268
    1DPPC   C4B 1392  21.866  15.645   4.857 -0.0160 -0.2371 -0.0033
    1DPPC   NC3 1393  14.526  11.187   7.228  0.3599 -0.1770  0.2104
    1DPPC   PO4 1394  14.219  11.435   7.316  0.1450  0.0960  0.4629
    1DPPC   GL1 1395  14.301  11.569   6.822 -0.1010  0.1265 -0.0022
    1DPPC   GL2 1396  14.541  11.761   6.799 -0.0396 -0.1308  0.0589
    1DPPC   C1A 1397  14.358  11.581   6.344  0.0957  0.2918 -0.1753
    1DPPC   C2A 1398  14.372  11.532   5.861 -0.1354  0.2091 -0.0455
    1DPPC   C3A 1399  14.404  11.548   5.425 -0.3987 -0.0622  0.2862
    1DPPC   C4A 1400  14.552  11.607   4.978 -0.0169  0.1201  0.0269
    1DPPC   C1B 1401  14.843  11.524   6.478 -0.0010 -0.0993 -0.0001
    1DPPC   C2B 1402  14.887  11.464   6.078 -0.1222  0.1881 -0.0190
    1DPPC   C3B 1403  14.810  11.391   5.699  0.0222  0.0195 -0.2487
    1DPPC   C4B 1404  14.912  11.488   5.288  0.1325  0.0404 -0.1968
    1DPPC   NC3 1405  13.790  16.361   7.013  0.0446 -0.0150  0.2713
    1DPPC   PO4 1406  14.181  16.484   7.077  0.1626  0.2252 -0.0755
    1DPPC   GL1 1407  14.017  16.788   6.720  0.1028 -0.0908  0.1411
    1DPPC   GL2 1408  13.891  16.549   6.550 -0.0372  0.2472  0.2152
    1DPPC   C1A 1409  14.099  17.056   6.335  0.1037 -0.2103 -0.0753
    1DPPC   C2A 1410  14.181  17.061   5.866  0.0150  0.1253  0.2667
    1DPPC   C3A 1411  14.225  17.025   5.441  0.0055  0.0248  0.4074
    1DPPC   C4A 1412  13.980  16.992   5.081  0.2227  0.3416 -0.0260
    1DPPC   C1B 1413  14.086  16.584   6.186  0.1097  0.0037 -0.2208
    1DPPC   C2B 1414  14.221  16.598   5.695 -0.0365 -0.1921  0.0324
    1DPPC   C3B 1415  14.238  16.477   5.421  0.3124  0.0219 -0.0473
    1DPPC   C4B 1416  14.440  16.711   5.016  0.0727 -0.0885 -0.1204
    1DPPC   NC3 1417  16.110  15.519   7.032 -0.0428 -0.1108  0.1363
    1DPPC   PO4 1418  15.950  15.898   7.139  0.2313 -0.5061 -0.1242
    1DPPC   GL1 1419  16.077  15.999   6.791 -0.1734  0.0163 -0.2362
    1DPPC   GL2 1420  15.845  16.126   6.668  0.0638  0.1601  0.0656
    1DPPC   C1A 1421  16.336  15.969   6.353  0.1610  0.0742  0.0435
    1DPPC   C2A 1422  16.332  16.027   5.953  0.2540 -0.1489  0.2153
    1DPPC   C3A 1423  16.296  16.147   5.500  0.0475 -0.2199 -0.1282
    1DPPC   C4A 1424  16.393  16.468   5.239  0.1327  0.0242 -0.1447
    1DPPC   C1B 1425  15.847  15.990   6.255  0.0033 -0.1227  0.0817
    1DPPC   C2B 1426  15.866  15.969   5.740 -0.0061  0.0193 -0.1114
    1DPPC   C3B 1427  15.898  16.049   5.255 -0.0132  0.2116  0.0066
    1DPPC   C4B 1428  16.303  16.029   5.033 -0.1321  0.3481 -0.0682
    1DPPC   NC3 1429  11.284  14.354   7.218 -0.1432 -0.3285 -0.0541
    1DPPC   PO4 1430  11.471  13.938   7.044  0.0506 -0.2640 -0.0150
    1DPPC   GL1 1431  11.481  13.813   6.628 -0.1780 -0.1699  0.2067
    1DPPC   GL2 1432  11.127  13.649   6.620  0.1514  0.0109 -0.0793
    1DPPC   C1A 1433  11.676  13.957   6.216 -0.0236  0.1839  0.2759
    1DPPC   C2A 1434  11.621  13.892   5.753  0.0598 -0.0667  0.0900
    1DPPC   C3A 1435  11.615  13.922   5.437  0.0803  0.1228 -0.1099
    1DPPC   C4A 1436  11.790  13.774   5.025  0.0028 -0.1081  0.1674
    1DPPC   C1B 1437  10.899  13.449   6.351 -0.1996  0.0017 -0.0961
    1DPPC   C2B 1438  10.802  13.232   5.980 -0.0585  0.1383 -0.3704
    1DPPC   C3B 1439  10.751  13.271   5.532  0.1073  0.1940 -0.0439
    1DPPC   C4B 1440  10.761  13.152   5.145  0.2115 -0.0477  0.1103
    1DPPC   NC3 1441  12.176  16.761   7.320 -0.1245  0.1072 -0.1539
    1DPPC   PO4 1442  12.592  16.700   7.209  0.1300 -0.2098  0.0666
    1DPPC   GL1 1443  12.585  16.605   6.816 -0.0174 -0.0366 -0.2050
    1DPPC   GL2 1444  12.764  16.695   6.636  0.0315 -0.2349 -0.1012
    1DPPC   C1A 1445  12.322  16.529   6.481  0.0427  0.2328 -0.0486
    1DPPC   C2A 1446  12.414  16.297   6.100  0.3060  0.0715 -0.0301
    1DPPC   C3A 1447  12.436  16.118   5.778 -0.1443 -0.3752  0.2500
    1DPPC   C4A 1448  12.548  16.206   5.322 -0.0836 -0.1113 -0.0233
    1DPPC   C1B 1449  13.105  16.631   6.320  0.1633 -0.3080  0.3387
    1DPPC   C2B 1450  13.216  16.566   5.827 -0.0829  0.0693  0.0731
    1DPPC   C3B 1451  13.220  16.614   5.361  0.3010  0.0224  0.1256
    1DPPC   C4B 1452  13.426  16.602   4.953 -0.0162 -0.1455 -0.1438
    1DPPC   NC3 1453  11.374  11.146   7.111  0.2946  0.2467 -0.4304
    1DPPC   PO4 1454  11.844  10.959   7.299  0.1126  0.4570 -0.0034
    1DPPC   GL1 1455  11.894  10.748   6.925 -0.2126  0.0319  0.0185
    1DPPC   GL2 1456  12.133  10.566   6.837 -0.0631  0.3040 -0.3024
    1DPPC   C1A 1457  11.877  10.868   6.557 -0.1325  0.2715 -0.0739
    1DPPC   C2A 1458  12.073  10.853   6.157  0.1001  0.0536 -0.0552
    1DPPC   C3A 1459  12.216  10.836   5.674  0.1401  0.1125  0.3166
    1DPPC   C4A 1460  12.181  10.670   5.365  0.1258 -0.0882  0.0922
    1DPPC   C1B 1461  12.242  10.453   6.461  0.0478  0.3672  0.1418
    1DPPC   C2B 1462  12.153  10.371   5.968 -0.3055  0.1306 -0.2061
    1DPPC   C3B 1463  12.237  10.218   5.590  0.2327  0.0631  0.2048
    1DPPC   C4B 1464  12.234   9.812   5.444 -0.1178  0.2875 -0.2848
    1DPPC   NC3 1465   5.647   3.691   6.213  0.0712 -0.0223 -0.0150
    1DPPC   PO4 1466   5.481   3.368   6.580 -0.1631  0.0465 -0.0783
    1DPPC   GL1 1467   5.657   3.075   6.196 -0.1268  0.0564  0.2376
    1DPPC   GL2 1468   5.941   3.236   6.112  0.0022 -0.0266  0.1126
    1DPPC   C1A 1469   5.597   2.850   5.718  0.5107  0.0388 -0.3870
    1DPPC   C2A 1470   5.798   2.858   5.358  0.6226  0.0705 -0.2057
    1DPPC   C3A 1471   6.071   2.813   4.957  0.2703 -0.1812  0.1335
    1DPPC   C4A 1472   6.376   2.928   4.609 -0.0781  0.0712  0.0875
    1DPPC   C1B 1473   6.089   3.204   5.629  0.2596 -0.2629 -0.2396
    1DPPC   C2B 1474   6.276   3.248   5.228 -0.1330  0.1208 -0.0314
    1DPPC   C3B 1475   6.588   3.355   4.864  0.1684 -0.0591  0.0310
    1DPPC   C4B 1476   6.835   3.595   4.586  0.0198 -0.3329 -0.0195
    1DPPC   NC3 1477  20.136  14.527   7.280 -0.0960 -0.0784  0.0159
    1DPPC   PO4 1478  20.344  14.115   7.051 -0.0391 -0.0729 -0.1459
    1DPPC   GL1 1479  20.524  13.813   6.823 -0.1582  0.0137 -0.0052
    1DPPC   GL2 1480  20.554  13.924   6.496 -0.3169  0.0113 -0.2334
    1DPPC   C1A 1481  20.174  13.576   6.495  0.1804 -0.0834  0.2510
    1DPPC   C2A 1482  20.032  13.691   6.026  0.0369 -0.0382  0.1265
    1DPPC   C3A 1483  19.863  13.739   5.626  0.0287  0.1040 -0.1283
    1DPPC   C4A 1484  19.775  13.735   5.128  0.0601 -0.0627 -0.2306
    1DPPC   C1B 1485  20.492  13.669   6.170  0.3353 -0.0525 -0.1968
    1DPPC   C2B 1486  20.448  13.528   5.698 -0.1006 -0.3232 -0.0102
    1DPPC   C3B 1487  20.292  13.566   5.330 -0.2825  0.1357  0.2089
    1DPPC   C4B 1488  20.301  13.539   4.920 -0.0475 -0.2310  0.3228
    1DPPC   NC3 1489  11.736  20.799   6.775 -0.4609 -0.2877  0.1995
    1DPPC   PO4 1490  12.144  20.654   6.647 -0.4658  0.0327 -0.0692
    1DPPC   GL1 1491  11.871  20.434   6.358  0.0688  0.1551  0.0882
    1DPPC   GL2 1492  11.585  20.616   6.306 -0.0411  0.1216 -0.1099
    1DPPC   C1A 1493  11.775  20.228   5.950 -0.0642  0.0283 -0.0467
    1DPPC   C2A 1494  11.556  19.987   5.775  0.3021 -0.0440 -0.1070
    1DPPC   C3A 1495  11.539  19.693   5.379 -0.0283 -0.0645  0.2439
    1DPPC   C4A 1496  11.321  19.416   5.073 -0.0841  0.1476 -0.2443
    1DPPC   C1B 1497  11.729  20.733   5.870  0.1253  0.1562  0.0263
    1DPPC   C2B 1498  11.742  20.525   5.547 -0.0471 -0.0398 -0.1660
    1DPPC   C3B 1499  11.735  20.142   5.235  0.0391  0.1367 -0.0320
    1DPPC   C4B 1500  11.673  19.921   4.770  0.1496  0.1560 -0.0695
    1DPPC   NC3 1501   8.954  11.365   7.043  0.1712 -0.0746 -0.1109
    1DPPC   PO4 1502   9.065  11.031   7.329  0.1652  0.1882  0.0042
    1DPPC   GL1 1503   9.125  10.802   6.960 -0.1103  0.1371  0.0029
    1DPPC   GL2 1504   8.917  10.581   7.001 -0.1034  0.1488 -0.1797
    1DPPC   C1A 1505   9.139  10.678   6.514  0.0072  0.0727 -0.2026
    1DPPC   C2A 1506   9.031  10.766   6.169 -0.2381 -0.0740  0.2911
    1DPPC   C3A 1507   9.271  10.855   5.755 -0.1450 -0.1233 -0.3538
    1DPPC   C4A 1508   9.505  10.602   5.583  0.0913  0.2078  0.0514
    1DPPC   C1B 1509   8.661  10.838   6.611 -0.5764  0.3211  0.0816
    1DPPC   C2B 1510   8.531  11.072   6.207  0.1509  0.1434 -0.2558
    1DPPC   C3B 1511   8.714  10.989   5.808 -0.0481  0.0133 -0.4228
    1DPPC   C4B 1512   8.861  10.819   5.433  0.4949 -0.1376 -0.3021
    1DPPC   NC3 1513   2.417  16.882   6.226 -0.1252 -0.0942 -0.0736
    1DPPC   PO4 1514   2.700  16.582   5.976  0.1917  0.0257 -0.1662
    1DPPC   GL1 1515   2.849  16.292   5.648 -0.0110  0.1849 -0.1582
    1DPPC   GL2 1516   2.875  16.618   5.560 -0.0264  0.1919 -0.0675
    1DPPC   C1A 1517   2.892  15.998   5.351 -0.0637 -0.0506 -0.1308
    1DPPC   C2A 1518   3.020  15.801   4.884  0.1034  0.0305  0.0014
    1DPPC   C3A 1519   3.026  15.556   4.531 -0.3163  0.1506 -0.0992
    1DPPC   C4A 1520   2.796  15.190   4.500 -0.1598  0.0469  0.1083
    1DPPC   C1B 1521   3.050  16.412   5.155 -0.1364 -0.0306  0.0661
    1DPPC   C2B 1522   3.371  16.203   4.849 -0.0854  0.1784 -0.0305
    1DPPC   C3B 1523   3.646  16.181   4.522  0.1191 -0.4548 -0.4749
    1DPPC   C4B 1524   3.826  16.107   4.120 -0.2205  0.0521  0.3605
    1DPPC   NC3 1525  17.287   7.182   7.239 -0.0350  0.1806 -0.0056
    1DPPC   PO4 1526  17.745   7.514   7.139  0.1324 -0.1252 -0.1192
    1DPPC   GL1 1527  17.944   7.517   6.697 -0.0503 -0.0543 -0.1552
    1DPPC   GL2 1528  17.995   7.279   6.616 -0.1551 -0.0910 -0.0382
    1DPPC   C1A 1529  17.955   7.691   6.308 -0.1367  0.2007 -0.0270
    1DPPC   C2A 1530  17.976   7.787   5.859 -0.0464  0.3867  0.0940
    1DPPC   C3A 1531  17.891   7.945   5.468 -0.1965  0.1919 -0.0386
    1DPPC   C4A 1532  17.581   7.934   5.176  0.0470 -0.2233 -0.0560
    1DPPC   C1B 1533  17.886   7.094   6.264  0.0348  0.0184 -0.0601
    1DPPC   C2B 1534  17.818   7.049   5.778 -0.5057 -0.0726 -0.2862
    1DPPC   C3B 1535  18.026   6.905   5.385 -0.0434 -0.0107  0.0997
    1DPPC   C4B 1536  18.023   6.669   5.028  0.1483 -0.2327 -0.1630
    1DPPC   NC3 1537  16.572  16.969   7.410  0.0147  0.0457 -0.0526
    1DPPC   PO4 1538  16.776  17.333   7.239 -0.0885 -0.2646  0.0784
    1DPPC   GL1 1539  17.029  17.642   6.933 -0.0210  0.0870  0.1049
    1DPPC   GL2 1540  16.773  17.723   6.749  0.2906 -0.0031 -0.1874
    1DPPC   C1A 1541  17.288  17.875   6.640 -0.1823 -0.1093  0.0807
    1DPPC   C2A 1542  17.330  17.929   6.188  0.0768  0.1906 -0.2492
    1DPPC   C3A 1543  17.432  18.166   5.869  0.1762 -0.0018  0.0970
    1DPPC   C4A 1544  17.531  18.493   5.511 -0.0311 -0.0389 -0.4551
    1DPPC   C1B 1545  16.853  17.895   6.359  0.3843 -0.0219 -0.1169
    1DPPC   C2B 1546  16.915  17.979   5.921 -0.2534  0.1709 -0.1914
    1DPPC   C3B 1547  16.977  18.284   5.578 -0.3539 -0.2098 -0.0123
    1DPPC   C4B 1548  17.063  18.486   5.281  0.3725 -0.0152  0.1105
    1DPPC   NC3 1549  20.705   6.616   6.816  0.0354  0.0472 -0.2577
    1DPPC   PO4 1550  20.174   6.754   6.851 -0.2086  0.1389 -0.2949
    1DPPC   GL1 1551  19.950   6.889   6.464 -0.0446 -0.2207  0.1882
    1DPPC   GL2 1552  19.700   6.745   6.692 -0.2536  0.2396  0.0407
    1DPPC   C1A 1553  20.105   6.804   6.035  0.0183 -0.0044  0.2762
    1DPPC   C2A 1554  20.216   6.898   5.614  0.0422  0.1041  0.1042
    1DPPC   C3A 1555  20.368   6.978   5.311  0.0058 -0.2290 -0.0035
    1DPPC   C4A 1556  20.815   7.117   5.188 -0.1460  0.2073 -0.1238
    1DPPC   C1B 1557  19.535   6.702   6.338 -0.3206  0.1750 -0.2972
    1DPPC   C2B 1558  19.578   6.748   5.897 -0.2196 -0.0111 -0.2558
    1DPPC   C3B 1559  19.483   6.948   5.470  0.2043 -0.2452  0.1029
    1DPPC   C4B 1560  19.574   7.227   5.097  0.1211  0.0328  0.2005
    1DPPC   NC3 1561  14.185  18.949   7.339 -0.0996  0.1938 -0.0624
    1DPPC   PO4 1562  13.801  19.151   7.277  0.1286  0.1807  0.1201
    1DPPC   GL1 1563  13.880  19.214   6.811 -0.0335 -0.2554 -0.0847
    1DPPC   GL2 1564  14.302  19.259   6.845 -0.1768  0.1262 -0.1464
    1DPPC   C1A 1565  14.189  19.271   6.388 -0.0306  0.1116  0.2793
    1DPPC   C2A 1566  14.239  19.533   6.084 -0.1169  0.1282  0.1727
    1DPPC   C3A 1567  14.152  19.503   5.620  0.1235  0.1991  0.0626
    1DPPC   C4A 1568  14.208  19.440   5.270  0.2242 -0.0612  0.0371
    1DPPC   C1B 1569  14.645  19.142   6.462 -0.1173 -0.1145  0.0200
    1DPPC   C2B 1570  14.701  19.178   5.997  0.0346 -0.0612  0.0984
    1DPPC   C3B 1571  14.845  19.167   5.603 -0.0554  0.3389  0.1032
    1DPPC   C4B 1572  15.155  19.274   5.263 -0.1264  0.0683  0.0049
    1DPPC   NC3 1573  11.176   7.295   6.948 -0.2568  0.0750 -0.0305
    1DPPC   PO4 1574  11.327   7.704   7.047  0.0900  0.0807 -0.0361
    1DPPC   GL1 1575  11.260   7.672   6.655  0.1511 -0.0275  0.2349
    1DPPC   GL2 1576  11.236   8.017   6.427  0.2287  0.0221  0.1551
    1DPPC   C1A 1577  11.279   7.559   6.272 -0.2659 -0.2807 -0.0177
    1DPPC   C2A 1578  11.407   7.738   5.994  0.3091 -0.2203 -0.0099
    1DPPC   C3A 1579  11.403   8.111   5.847 -0.0676 -0.1293  0.3286
    1DPPC   C4A 1580  11.271   8.312   5.430 -0.1783  0.2997  0.0814
    1DPPC   C1B 1581  11.629   8.208   6.365  0.0380 -0.2028 -0.2873
    1DPPC   C2B 1582  11.888   8.260   6.073 -0.0227 -0.1263  0.3019
    1DPPC   C3B 1583  12.077   8.116   5.598  0.0054  0.0175  0.0173
    1DPPC   C4B 1584  12.482   8.141   5.467  0.0547  0.0008 -0.1730
    1DPPC   NC3 1585   9.233  15.580   6.562 -0.0970 -0.2036  0.0199
    1DPPC   PO4 1586   9.466  15.139   6.666 -0.2477  0.0743 -0.0364
    1DPPC   GL1 1587   9.324  15.068   6.329  0.1271  0.2693  0.1409
    1DPPC   GL2 1588   9.015  14.971   6.295  0.2747  0.0657 -0.1553
    1DPPC   C1A 1589   9.327  14.986   5.911  0.0863 -0.0280  0.2626
    1DPPC   C2A 1590   9.276  14.969   5.543 -0.0383 -0.0260 -0.0053
    1DPPC   C3A 1591   9.431  14.957   5.049 -0.1561  0.1271 -0.0455
    1DPPC   C4A 1592   9.343  14.924   4.584 -0.1149  0.1942 -0.2121
    1DPPC   C1B 1593   8.904  15.206   5.856 -0.0827 -0.3402  0.1599
    1DPPC   C2B 1594   8.843  15.126   5.423  0.4475  0.3383  0.3450
    1DPPC   C3B 1595   8.868  15.162   5.054  0.0259  0.0157 -0.0619
    1DPPC   C4B 1596   8.894  15.115   4.669  0.2218 -0.1543 -0.1066
    1DPPC   NC3 1597  16.597  12.986   7.312  0.0556  0.1926  0.0445
    1DPPC   PO4 1598  17.050  12.714   7.176 -0.1561 -0.0089 -0.1683
    1DPPC   GL1 1599  17.007  12.567   6.678 -0.0088  0.0465 -0.0587
    1DPPC   GL2 1600  16.838  12.337   6.617 -0.0798  0.1685 -0.0621
    1DPPC   C1A 1601  17.021  12.858   6.326 -0.2012  0.2423 -0.0854
    1DPPC   C2A 1602  17.286  13.055   6.216  0.0422 -0.1791 -0.0224
    1DPPC   C3A 1603  17.192  13.374   5.941 -0.0995  0.4247  0.0778
    1DPPC   C4A 1604  17.199  13.521   5.537  0.0936 -0.2260 -0.0732
    1DPPC   C1B 1605  16.859  12.288   6.159  0.1619 -0.1233 -0.0945
    1DPPC   C2B 1606  16.856  12.299   5.760  0.0836 -0.4321 -0.4580
    1DPPC   C3B 1607  16.817  12.233   5.352 -0.0955  0.2058 -0.5978
    1DPPC   C4B 1608  16.986  12.207   4.923  0.0516  0.0088  0.4859
    1DPPC   NC3 1609   9.065  17.751   6.520  0.2318  0.1040  0.1704
    1DPPC   PO4 1610   9.306  17.251   6.682 -0.0058 -0.1471  0.1861
    1DPPC   GL1 1611   9.399  17.428   6.362 -0.0903 -0.2383  0.0475
    1DPPC   GL2 1612   9.690  17.656   6.330  0.2572  0.1125  0.0901
    1DPPC   C1A 1613   9.386  17.394   5.926  0.0042  0.1410 -0.0423
    1DPPC   C2A 1614   9.420  17.444   5.487  0.1732 -0.1706 -0.2905
    1DPPC   C3A 1615   9.284  17.459   5.112  0.0792 -0.0047 -0.0340
    1DPPC   C4A 1616   8.984  17.254   4.781 -0.0435  0.1278 -0.1245
    1DPPC   C1B 1617   9.890  17.476   5.880 -0.0125  0.1220  0.0463
    1DPPC   C2B 1618   9.920  17.460   5.419  0.0291 -0.2041 -0.0146
    1DPPC   C3B 1619  10.088  17.210   5.090  0.2339 -0.1616  0.0926
    1DPPC   C4B 1620  10.228  16.991   4.711 -0.1834  0.0601 -0.1499
    1DPPC   NC3 1621   9.050  19.670   6.856  0.0198  0.4020 -0.0421
    1DPPC   PO4 1622   9.028  19.865   6.519 -0.1167  0.2923  0.0253
    1DPPC   GL1 1623   9.064  19.768   6.163  0.3425  0.0116  0.3906
    1DPPC   GL2 1624   9.171  19.504   6.189  0.0272  0.0730 -0.1720
    1DPPC   C1A 1625   9.121  19.990   5.784  0.0092  0.1608  0.0460
    1DPPC   C2A 1626   9.038  20.032   5.329  0.0525  0.1136 -0.3740
    1DPPC   C3A 1627   9.156  19.915   4.901 -0.3534 -0.0226  0.0706
    1DPPC   C4A 1628   8.938  19.716   4.534 -0.0129  0.1000 -0.0026
    1DPPC   C1B 1629   9.171  19.323   5.788  0.0131  0.4482 -0.1625
    1DPPC   C2B 1630   9.228  19.489   5.277  0.1259  0.3981 -0.0278
    1DPPC   C3B 1631   9.111  19.253   4.869  0.1552 -0.0050  0.0726
    1DPPC   C4B 1632   8.815  19.161   4.634 -0.0282 -0.0091 -0.0922
    1DPPC   NC3 1633  17.885  22.067   6.640 -0.0715  0.1994 -0.0243
    1DPPC   PO4 1634  18.068  21.700   6.733  0.2590  0.3872  0.0969
    1DPPC   GL1 1635  18.400  21.568   6.546 -0.2482  0.2878  0.0740
    1DPPC   GL2 1636  18.322  21.773   6.309 -0.4034 -0.2271  0.1513
    1DPPC   C1A 1637  18.575  21.333   6.172 -0.3692 -0.0924  0.2291
    1DPPC   C2A 1638  18.536  21.248   5.715 -0.0287  0.1659  0.2049
    1DPPC   C3A 1639  18.399  21.043   5.326 -0.0787 -0.1885  0.0973
    1DPPC   C4A 1640  18.094  21.055   5.056  0.1165  0.0732 -0.0926
    1DPPC   C1B 1641  18.391  21.707   5.858 -0.0622 -0.0155 -0.1389
    1DPPC   C2B 1642  18.389  21.633   5.457  0.0639  0.1051 -0.2641
    1DPPC   C3B 1643  18.396  21.493   5.099 -0.4219  0.0459 -0.0513
    1DPPC   C4B 1644  18.101  21.476   4.748  0.2136  0.0719  0.1236
    1DPPC   NC3 1645  18.446  13.225   6.992 -0.0712 -0.0121 -0.2248
    1DPPC   PO4 1646  18.868  13.045   7.089 -0.4763  0.1029 -0.1699
    1DPPC   GL1 1647  18.907  13.121   6.691  0.1058  0.1801  0.1545
    1DPPC   GL2 1648  18.801  13.334   6.536  0.1223  0.0017 -0.1499
    1DPPC   C1A 1649  19.106  12.982   6.350 -0.2391 -0.1621  0.0036
    1DPPC   C2A 1650  19.261  13.027   5.927  0.0132 -0.2903  0.0374
    1DPPC   C3A 1651  19.195  13.014   5.486 -0.1443 -0.0952  0.0642
    1DPPC   C4A 1652  19.065  13.020   5.048  0.2787  0.0847  0.0721
    1DPPC   C1B 1653  18.399  13.532   6.288  0.0688  0.0316  0.2280
    1DPPC   C2B 1654  18.268  13.741   5.947  0.0577 -0.0217 -0.0281
    1DPPC   C3B 1655  18.215  13.660   5.444 -0.0543  0.4401  0.0864
    1DPPC   C4B 1656  18.201  13.549   5.126 -0.2199  0.0250 -0.0264
    1DPPC   NC3 1657  18.289  10.021   7.653  0.0987 -0.0847  0.1321
    1DPPC   PO4 1658  18.155   9.658   7.279 -0.1358  0.2041 -0.1236
    1DPPC   GL1 1659  18.055   9.515   6.913 -0.1737  0.0958  0.0955
    1DPPC   GL2 1660  17.878   9.290   6.873  0.1210  0.0192  0.2246
    1DPPC   C1A 1661  18.316   9.583   6.520 -0.1526  0.0988  0.0902
    1DPPC   C2A 1662  18.315   9.690   6.164 -0.1028 -0.0894 -0.1719
    1DPPC   C3A 1663  18.265   9.626   5.787 -0.0052  0.1877 -0.0072
    1DPPC   C4A 1664  18.198   9.687   5.386  0.2083  0.3121 -0.0958
    1DPPC   C1B 1665  17.970   9.268   6.343 -0.2363  0.1000  0.1324
    1DPPC   C2B 1666  17.996   9.211   5.869 -0.5256 -0.0418 -0.2192
    1DPPC   C3B 1667  17.921   9.234   5.500 -0.0616 -0.0590 -0.1011
    1DPPC   C4B 1668  17.945   9.277   5.075  0.2756  0.1677 -0.1738
    1DPPC   NC3 1669   8.422  12.748   6.816 -0.2124  0.3383  0.1545
    1DPPC   PO4 1670   8.627  12.289   6.799 -0.3491 -0.2787  0.2078
    1DPPC   GL1 1671   8.754  12.090   6.447  0.1796 -0.0038  0.1462
    1DPPC   GL2 1672   8.992  11.926   6.350  0.2351  0.1748 -0.0725
    1DPPC   C1A 1673   8.703  12.290   6.024 -0.4268  0.3052 -0.0208
    1DPPC   C2A 1674   8.783  12.460   5.611 -0.1143  0.0859 -0.1051
    1DPPC   C3A 1675   8.774  12.591   5.169 -0.0256  0.4181 -0.0827
    1DPPC   C4A 1676   8.492  12.641   4.739  0.1450 -0.0049 -0.1495
    1DPPC   C1B 1677   9.062  11.922   5.882 -0.0654 -0.1477 -0.2941
    1DPPC   C2B 1678   8.927  11.931   5.518  0.1175  0.3615  0.1595
    1DPPC   C3B 1679   9.094  11.722   5.170 -0.1965  0.0020 -0.2437
    1DPPC   C4B 1680   9.048  11.801   4.705 -0.2006 -0.3245  0.1598
    1DPPC   NC3 1681  10.554  17.955   6.924  0.1311 -0.3278  0.1022
    1DPPC   PO4 1682  10.860  18.316   6.947 -0.1544 -0.1376 -0.2040
    1DPPC   GL1 1683  10.800  18.233   6.546 -0.2277 -0.3099  0.2512
    1DPPC   GL2 1684  10.815  18.492   6.276 -0.0903  0.0879  0.1563
    1DPPC   C1A 1685  11.042  18.113   6.204 -0.0668  0.2719  0.3923
    1DPPC   C2A 1686  11.097  18.045   5.747 -0.0599 -0.2058 -0.0969
    1DPPC   C3A 1687  11.249  18.006   5.290  0.0337  0.1047  0.3528
    1DPPC   C4A 1688  11.418  17.928   4.836 -0.0055  0.0753  0.1207
    1DPPC   C1B 1689  10.797  18.422   5.849  0.1722  0.2576 -0.0870
    1DPPC   C2B 1690  10.847  18.402   5.441 -0.0664  0.1072 -0.0201
    1DPPC   C3B 1691  10.956  18.365   5.006  0.0932  0.0651 -0.5483
    1DPPC   C4B 1692  11.252  18.382   4.765  0.0964  0.0515 -0.1071
    1DPPC   NC3 1693  15.349  12.249   7.297 -0.0911  0.1469 -0.1115
    1DPPC   PO4 1694  15.281  12.661   7.290  0.0322  0.2524 -0.2374
    1DPPC   GL1 1695  15.204  12.514   6.873  0.3532 -0.2796 -0.1978
    1DPPC   GL2 1696  15.482  12.435   6.711  0.0992  0.2726  0.0881
    1DPPC   C1A 1697  15.087  12.504   6.406  0.3354 -0.0739  0.2390
    1DPPC   C2A 1698  14.986  12.407   6.065 -0.0907  0.0316 -0.3280
    1DPPC   C3A 1699  15.030  12.311   5.716  0.3216  0.1470 -0.1749
    1DPPC   C4A 1700  14.870  12.393   5.395  0.0844 -0.0240 -0.0088
    1DPPC   C1B 1701  15.551  12.525   6.308  0.3431  0.0007  0.0258
    1DPPC   C2B 1702  15.468  12.518   5.894  0.1637  0.0860  0.2194
    1DPPC   C3B 1703  15.417  12.485   5.389 -0.0624  0.0905 -0.1019
    1DPPC   C4B 1704  15.224  12.241   4.994 -0.1846 -0.0412 -0.1763
    1DPPC   NC3 1705  18.832  25.918   7.111 -0.0149 -0.0562  0.3729
    1DPPC   PO4 1706  19.196  25.901   6.936  0.0261 -0.0345 -0.0118
    1DPPC   GL1 1707  19.060  25.909   6.550 -0.0239 -0.3106  0.0525
    1DPPC   GL2 1708  19.425  25.875   6.426 -0.2360 -0.0194 -0.2110
    1DPPC   C1A 1709  18.967  25.909   6.100  0.1334 -0.0939 -0.1537
    1DPPC   C2A 1710  18.790  25.972   5.778 -0.2211 -0.0444  0.1946
    1DPPC   C3A 1711  18.939  26.012   5.323 -0.0655 -0.1695  0.0250
    1DPPC   C4A 1712  19.274  25.891   5.017 -0.1247 -0.3791  0.1619
    1DPPC   C1B 1713  19.438  25.934   5.901 -0.1725 -0.0337 -0.1883
    1DPPC   C2B 1714  19.407  26.147   5.443  0.0598  0.1788  0.1968
    1DPPC   C3B 1715  19.269  26.388   5.024 -0.1949  0.1409 -0.0098
    1DPPC   C4B 1716  19.312  26.561   4.721 -0.0596  0.0295 -0.0487
    1DPPC   NC3 1717   3.301  18.660   6.303 -0.0610  0.1327 -0.2257
    1DPPC   PO4 1718   3.563  18.545   5.907  0.0800  0.4133 -0.0440
    1DPPC   GL1 1719   3.503  18.589   5.524  0.2587  0.1777 -0.0102
    1DPPC   GL2 1720   3.716  18.605   5.298 -0.3650 -0.3737 -0.0251
    1DPPC   C1A 1721   3.150  18.669   5.223 -0.2480  0.0741  0.1154
    1DPPC   C2A 1722   3.066  19.042   4.929  0.2106  0.2897  0.0779
    1DPPC   C3A 1723   3.383  19.221   4.638  0.1623  0.0338  0.0800
    1DPPC   C4A 1724   3.508  18.991   4.342  0.2542  0.0445  0.0889
    1DPPC   C1B 1725   3.993  18.710   4.965  0.1215 -0.2115 -0.3295
    1DPPC   C2B 1726   3.874  18.764   4.568 -0.0036 -0.2342  0.1146
    1DPPC   C3B 1727   3.681  18.588   4.127  0.0788 -0.1579 -0.1696
    1DPPC   C4B 1728   3.588  18.363   3.807 -0.0239 -0.0560 -0.1466
    1DPPC   NC3 1729  21.784  18.549   7.297  0.0539 -0.0566 -0.0702
    1DPPC   PO4 1730  21.691  18.879   7.421 -0.1425 -0.1393  0.3080
    1DPPC   GL1 1731  21.638  18.789   6.909 -0.1009  0.2781 -0.1559
    1DPPC   GL2 1732  21.807  18.538   6.725 -0.3909  0.1688  0.1039
    1DPPC   C1A 1733  21.253  18.640   6.609 -0.2950 -0.1007 -0.2514
    1DPPC   C2A 1734  20.810  18.636   6.426 -0.1284 -0.3286 -0.0131
    1DPPC   C3A 1735  20.598  18.774   5.950 -0.2271 -0.3076  0.1511
    1DPPC   C4A 1736  20.514  18.552   5.548 -0.1540 -0.1940 -0.2794
    1DPPC   C1B 1737  21.639  18.428   6.255 -0.0705 -0.0062  0.0163
    1DPPC   C2B 1738  21.523  18.321   5.810  0.4166 -0.0846  0.2806
    1DPPC   C3B 1739  21.788  18.185   5.468 -0.2277 -0.1121 -0.1319
    1DPPC   C4B 1740  22.199  18.264   5.487  0.0539 -0.0212 -0.1883
    1DPPC   NC3 1741  12.632  17.170   6.890 -0.0016  0.1308 -0.0269
    1DPPC   PO4 1742  12.189  17.263   7.043  0.0098 -0.3507 -0.1629
    1DPPC   GL1 1743  12.014  17.363   6.653  0.0538  0.0290 -0.0495
    1DPPC   GL2 1744  11.673  17.383   6.438  0.0909  0.0182 -0.3935
    1DPPC   C1A 1745  12.156  17.421   6.311  0.4131  0.1705  0.0919
    1DPPC   C2A 1746  12.342  17.327   5.869  0.0923  0.2873 -0.0853
    1DPPC   C3A 1747  12.497  17.210   5.467 -0.0039 -0.3182  0.0058
    1DPPC   C4A 1748  12.474  17.035   5.030  0.0238  0.0527  0.0699
    1DPPC   C1B 1749  11.740  17.286   6.046 -0.0147 -0.1874  0.1632
    1DPPC   C2B 1750  11.880  17.233   5.647  0.0678 -0.2061  0.0291
    1DPPC   C3B 1751  11.921  17.186   5.224  0.6569 -0.3614 -0.0913
    1DPPC   C4B 1752  11.977  16.862   4.860  0.2613  0.2303 -0.3421
    1DPPC   NC3 1753  16.012  21.508   6.945  0.2711 -0.0468 -0.1499
    1DPPC   PO4 1754  16.148  21.894   6.785 -0.1880 -0.1781  0.0202
    1DPPC   GL1 1755  16.198  21.620   6.434 -0.4331  0.3926  0.0008
    1DPPC   GL2 1756  16.182  21.217   6.516 -0.3177 -0.1610 -0.1161
    1DPPC   C1A 1757  16.364  21.405   6.021 -0.3326  0.1374 -0.0403
    1DPPC   C2A 1758  16.293  21.470   5.670 -0.5269  0.0153 -0.0844
    1DPPC   C3A 1759  16.251  21.552   5.213 -0.1850 -0.3065  0.1195
    1DPPC   C4A 1760  16.146  21.505   4.818 -0.0745 -0.1102  0.0269
    1DPPC   C1B 1761  16.034  20.987   6.224 -0.0254  0.0716  0.2818
    1DPPC   C2B 1762  16.055  21.006   5.760 -0.0276 -0.1380 -0.2717
    1DPPC   C3B 1763  15.854  21.159   5.363  0.2528  0.1852  0.0550
    1DPPC   C4B 1764  15.778  21.324   4.983 -0.0232  0.0037 -0.1077
    1DPPC   NC3 1765  11.791  13.170   7.481  0.0812 -0.3232  0.0267
    1DPPC   PO4 1766  12.130  13.200   7.187  0.0135  0.0627 -0.1610
    1DPPC   GL1 1767  12.126  13.212   6.763  0.1470  0.0007  0.4022
    1DPPC   GL2 1768  12.364  13.496   6.754  0.1244 -0.0144  0.1602
    1DPPC   C1A 1769  12.238  13.203   6.301  0.1444  0.1061 -0.0735
    1DPPC   C2A 1770  12.230  13.148   5.898 -0.0876  0.0396 -0.1083
    1DPPC   C3A 1771  12.173  13.131   5.518  0.0314 -0.3000 -0.1699
    1DPPC   C4A 1772  12.122  12.889   5.144  0.1681  0.0533  0.2117
    1DPPC   C1B 1773  12.696  13.582   6.445 -0.1484  0.1830  0.1976
    1DPPC   C2B 1774  12.708  13.431   5.957 -0.3022  0.0657  0.1540
    1DPPC   C3B 1775  12.672  13.221   5.547  0.0374 -0.2843  0.0102
    1DPPC   C4B 1776  12.609  13.031   5.196  0.0097 -0.3308  0.1300
    1DPPC   NC3 1777  19.594  13.515   7.186 -0.0127  0.3018  0.1829
    1DPPC   PO4 1778  19.554  13.746   6.827 -0.1685  0.2538  0.0448
    1DPPC   GL1 1779  19.650  13.969   6.447 -0.0077  0.2623 -0.0344
    1DPPC   GL2 1780  19.966  14.057   6.415  0.4238  0.0286 -0.0478
    1DPPC   C1A 1781  19.740  14.127   5.980 -0.2287  0.0461  0.1727
    1DPPC   C2A 1782  19.752  14.251   5.586 -0.0451 -0.0527 -0.1579
    1DPPC   C3A 1783  19.658  14.245   5.193 -0.0382 -0.0839  0.0885
    1DPPC   C4A 1784  19.477  14.491   4.922 -0.0209 -0.0976 -0.2381
    1DPPC   C1B 1785  20.279  14.159   6.183  0.1215 -0.0679  0.4016
    1DPPC   C2B 1786  20.224  14.030   5.759  0.3118 -0.1633 -0.0886
    1DPPC   C3B 1787  20.142  14.060   5.301 -0.0005  0.1808  0.1311
    1DPPC   C4B 1788  20.222  14.023   4.824 -0.0124 -0.1839 -0.2042
    1DPPC   NC3 1789  23.146  14.101   6.140 -0.0227  0.0029 -0.0058
    1DPPC   PO4 1790  23.028  13.712   6.063  0.1565  0.1100  0.0103
    1DPPC   GL1 1791  23.019  13.514   5.681  0.0046 -0.1562 -0.4101
    1DPPC   GL2 1792  22.964  13.795   5.473 -0.1350  0.1772 -0.0258
    1DPPC   C1A 1793  23.042  13.162   5.323 -0.0465 -0.0502 -0.3929
    1DPPC   C2A 1794  22.844  13.135   5.033  0.2094 -0.0649 -0.3184
    1DPPC   C3A 1795  22.496  13.088   4.630 -0.0296 -0.0902  0.2614
    1DPPC   C4A 1796  22.033  12.995   4.729  0.0481 -0.2961 -0.2808
    1DPPC   C1B 1797  22.758  13.579   5.134 -0.1859  0.1234  0.2807
    1DPPC   C2B 1798  22.782  13.529   4.686 -0.4999  0.1063 -0.0694
    1DPPC   C3B 1799  22.949  13.673   4.388 -0.1166 -0.2671  0.2812
    1DPPC   C4B 1800  22.951  13.641   3.889 -0.1080  0.2563 -0.0170
    1DPPC   NC3 1801   9.233  12.920   7.165  0.2052  0.1665  0.2617
    1DPPC   PO4 1802   9.028  12.654   6.915 -0.4617 -0.0654  0.1905
    1DPPC   GL1 1803   8.878  12.596   6.542  0.2916  0.1225 -0.2350
    1DPPC   GL2 1804   8.758  12.772   6.337  0.0750 -0.0792 -0.2481
    1DPPC   C1A 1805   9.162  12.537   6.161  0.1511  0.0566  0.1306
    1DPPC   C2A 1806   9.264  12.567   5.778  0.2638 -0.0034 -0.0524
    1DPPC   C3A 1807   9.314  12.446   5.353  0.1143 -0.2292 -0.3186
    1DPPC   C4A 1808   9.153  12.205   5.082 -0.1863  0.0956  0.1538
    1DPPC   C1B 1809   8.918  12.869   5.917 -0.1180 -0.1492  0.1043
    1DPPC   C2B 1810   8.899  12.936   5.466  0.4292  0.1939  0.1167
    1DPPC   C3B 1811   8.960  13.079   5.133  0.1665 -0.0858  0.2007
    1DPPC   C4B 1812   8.989  13.142   4.602 -0.1532  0.1709 -0.0018
    1DPPC   NC3 1813  23.028  14.942   6.207  0.1576  0.2806 -0.5085
    1DPPC   PO4 1814  22.847  14.552   6.099 -0.2426  0.2177 -0.0153
    1DPPC   GL1 1815  22.749  14.813   5.721  0.2262  0.1036  0.1110
    1DPPC   GL2 1816  22.593  15.049   5.624  0.3609  0.0307  0.0716
    1DPPC   C1A 1817  23.021  14.808   5.361 -0.0988  0.1862 -0.2143
    1DPPC   C2A 1818  23.155  14.942   4.930  0.0847 -0.1063  0.4632
    1DPPC   C3A 1819  23.243  14.818   4.577 -0.0354  0.2990 -0.0611
    1DPPC   C4A 1820  23.522  14.526   4.337 -0.0162  0.2105 -0.3022
    1DPPC   C1B 1821  22.301  15.167   5.247  0.1001  0.0362 -0.2219
    1DPPC   C2B 1822  22.268  15.350   4.909 -0.0475 -0.0048  0.0392
    1DPPC   C3B 1823  22.635  15.316   4.531  0.0936 -0.1636 -0.1489
    1DPPC   C4B 1824  23.037  15.279   4.607 -0.4217 -0.0859  0.1268
    1DPPC   NC3 1825  16.171  22.337   7.117 -0.1420  0.0762  0.1928
    1DPPC   PO4 1826  16.410  22.334   6.751  0.1870 -0.0623  0.1055
    1DPPC   GL1 1827  16.263  22.629   6.297  0.1280 -0.0883 -0.0113
    1DPPC   GL2 1828  16.463  22.910   6.170 -0.0125 -0.1310 -0.3283
    1DPPC   C1A 1829  16.260  22.403   5.892 -0.3348 -0.2098 -0.0844
    1DPPC   C2A 1830  16.266  22.554   5.426  0.1260  0.2893  0.2795
    1DPPC   C3A 1831  16.389  22.591   5.013  0.0683  0.0409 -0.1393
    1DPPC   C4A 1832  16.230  22.638   4.594 -0.0008  0.0627 -0.0473
    1DPPC   C1B 1833  16.458  22.904   5.679  0.0196  0.1288 -0.1931
    1DPPC   C2B 1834  16.612  22.975   5.286  0.0233  0.1185 -0.2334
    1DPPC   C3B 1835  16.926  23.136   4.988 -0.0333  0.0176  0.0437
    1DPPC   C4B 1836  17.282  23.465   4.868  0.2705  0.1357  0.2554
    1DPPC   NC3 1837   7.913  13.982   6.774 -0.0325 -0.1897 -0.1944
    1DPPC   PO4 1838   7.910  13.583   6.591 -0.1212  0.1392 -0.0649
    1DPPC   GL1 1839   8.019  13.476   6.239  0.0733  0.0278  0.0080
    1DPPC   GL2 1840   8.210  13.389   6.153 -0.3911 -0.1611 -0.0025
    1DPPC   C1A 1841   8.104  13.466   5.698  0.0565 -0.0865  0.0134
    1DPPC   C2A 1842   8.117  13.461   5.307 -0.0536  0.0256  0.0786
    1DPPC   C3A 1843   7.838  13.395   4.996 -0.2834 -0.0043  0.3469
    1DPPC   C4A 1844   7.695  13.155   4.583  0.0222 -0.0860 -0.0920
    1DPPC   C1B 1845   8.513  13.712   6.018  0.1853 -0.2702  0.0702
    1DPPC   C2B 1846   8.480  13.822   5.607  0.1144  0.2003 -0.1724
    1DPPC   C3B 1847   8.526  13.818   5.167  0.1920 -0.1925 -0.0916
    1DPPC   C4B 1848   8.649  13.709   4.686 -0.0326 -0.0581  0.2570
    1DPPC   NC3 1849  11.523  10.140   7.222  0.0393  0.0314 -0.1618
    1DPPC   PO4 1850  11.500  10.491   7.108 -0.0128  0.2947 -0.2221
    1DPPC   GL1 1851  11.381  10.284   6.775 -0.0472  0.1504  0.0054
    1DPPC   GL2 1852  11.671  10.119   6.694  0.1534  0.0478 -0.0988
    1DPPC   C1A 1853  11.399  10.019   6.319 -0.1747  0.2830  0.2393
    1DPPC   C2A 1854  11.271   9.885   5.860  0.0718  0.2534 -0.0625
    1DPPC   C3A 1855  11.096  10.082   5.458  0.0859 -0.1097  0.2774
    1DPPC   C4A 1856  11.132  10.278   5.098 -0.0528  0.1151 -0.3922
    1DPPC   C1B 1857  11.753  10.402   6.367  0.0819 -0.1502 -0.0200
    1DPPC   C2B 1858  11.640  10.708   5.988 -0.1014 -0.2742 -0.1120
    1DPPC   C3B 1859  11.655  10.857   5.534 -0.0737  0.4431  0.3944
    1DPPC   C4B 1860  11.694  10.848   5.036 -0.1505  0.0127  0.0793
    1DPPC   NC3 1861   2.567  13.669   6.464  0.4547 -0.2516  0.0273
    1DPPC   PO4 1862   2.467  13.358   6.120 -0.1879  0.0245  0.1210
    1DPPC   GL1 1863   2.334  13.597   5.773  0.2378 -0.1546  0.1678
    1DPPC   GL2 1864   2.220  13.303   5.493  0.0806  0.0219 -0.0514
    1DPPC   C1A 1865   2.440  13.937   5.542 -0.0055  0.0836 -0.0991
    1DPPC   C2A 1866   2.397  14.151   5.055 -0.0687 -0.0044 -0.1303
    1DPPC   C3A 1867   2.339  14.152   4.585 -0.1503 -0.4367 -0.1577
    1DPPC   C4A 1868   2.483  13.994   4.228 -0.4648 -0.0461 -0.0079
    1DPPC   C1B 1869   2.445  12.958   5.505  0.1428 -0.0233 -0.0433
    1DPPC   C2B 1870   2.552  12.584   5.159  0.1704 -0.2066 -0.2261
    1DPPC   C3B 1871   2.430  12.089   5.026 -0.0692 -0.0348 -0.1630
    1DPPC   C4B 1872   2.614  11.964   4.670 -0.1661 -0.1967  0.0854
    1DPPC   NC3 1873  15.702  18.725   7.661  0.1461  0.0494 -0.1086
    1DPPC   PO4 1874  15.710  18.787   7.326 -0.0177 -0.1353  0.0964
    1DPPC   GL1 1875  15.735  18.959   6.860  0.0904 -0.2778  0.2039
    1DPPC   GL2 1876  16.010  19.181   6.984  0.0385  0.0643  0.0867
    1DPPC   C1A 1877  15.728  19.030   6.424 -0.3300  0.1890 -0.0071
    1DPPC   C2A 1878  15.792  19.150   5.970 -0.2712  0.3079  0.1228
    1DPPC   C3A 1879  15.986  19.461   5.642  0.0005  0.2184  0.2067
    1DPPC   C4A 1880  16.225  19.733   5.395  0.1129 -0.2590  0.1992
    1DPPC   C1B 1881  15.954  19.489   6.662  0.0746  0.4067 -0.3868
    1DPPC   C2B 1882  16.125  19.339   6.264 -0.0709 -0.3008  0.0328
    1DPPC   C3B 1883  16.306  19.208   5.980  0.2087 -0.1630 -0.1223
    1DPPC   C4B 1884  16.547  19.326   5.569 -0.1864 -0.2198 -0.0192
    1DPPC   NC3 1885   9.806  19.793   6.985  0.0777 -0.1558  0.0765
    1DPPC   PO4 1886  10.137  19.720   6.645  0.0992 -0.1027 -0.2556
    1DPPC   GL1 1887  10.411  19.659   6.244 -0.1492  0.0880  0.0325
    1DPPC   GL2 1888  10.102  19.722   5.995 -0.2501 -0.0124 -0.1511
    1DPPC   C1A 1889  10.616  19.725   5.788  0.0037 -0.0620  0.1497
    1DPPC   C2A 1890  10.657  19.921   5.386 -0.2237 -0.2317 -0.0282
    1DPPC   C3A 1891  10.619  19.971   5.045 -0.3526  0.0459 -0.0064
    1DPPC   C4A 1892  10.882  19.916   4.719 -0.1290 -0.0621  0.0325
    1DPPC   C1B 1893  10.115  19.560   5.587  0.2022 -0.0098  0.1861
    1DPPC   C2B 1894  10.009  19.391   5.164  0.0679 -0.1398 -0.0436
    1DPPC   C3B 1895  10.230  19.463   4.788  0.1195  0.1128 -0.0040
    1DPPC   C4B 1896  10.079  19.417   4.451  0.2385  0.0470 -0.1950
    1DPPC   NC3 1897   9.991  19.232   6.789  0.4004  0.0687  0.2975
    1DPPC   PO4 1898   9.664  18.994   6.715  0.5569 -0.1760 -0.2065
    1DPPC   GL1 1899   9.508  19.027   6.241  0.2989  0.0408  0.1972
    1DPPC   GL2 1900   9.582  19.211   6.200 -0.0481  0.2783  0.0851
    1DPPC   C1A 1901   9.388  18.881   5.832 -0.1925  0.2877  0.0249
    1DPPC   C2A 1902   9.533  18.729   5.487 -0.3538 -0.0762 -0.0051
    1DPPC   C3A 1903   9.592  18.724   5.042  0.3567 -0.0896 -0.0853
    1DPPC   C4A 1904   9.683  18.602   4.519  0.0168  0.2043  0.3874
    1DPPC   C1B 1905   9.675  19.369   5.832  0.0895  0.1857  0.0807
    1DPPC   C2B 1906   9.641  19.197   5.522 -0.0179 -0.0191 -0.2558
    1DPPC   C3B 1907   9.551  19.220   5.078 -0.0136  0.1599  0.1435
    1DPPC   C4B 1908   9.624  19.221   4.618  0.0414  0.2209  0.1057
    1DPPC   NC3 1909  16.755   8.845   7.946  0.0602  0.0266  0.1474
    1DPPC   PO4 1910  16.342   8.661   7.872 -0.0283  0.1366  0.1631
    1DPPC   GL1 1911  16.644   8.433   7.435  0.0620 -0.0644  0.0356
    1DPPC   GL2 1912  16.569   8.496   7.092  0.3582 -0.0493  0.0219
    1DPPC   C1A 1913  16.861   8.098   7.082 -0.2444  0.0192  0.1380
    1DPPC   C2A 1914  17.119   7.809   6.807  0.0006  0.1749  0.0800
    1DPPC   C3A 1915  17.093   7.703   6.389  0.0156  0.1668 -0.2554
    1DPPC   C4A 1916  17.113   7.695   5.957  0.2569 -0.0949  0.0443
    1DPPC   C1B 1917  16.747   8.278   6.646  0.1530 -0.2329  0.0203
    1DPPC   C2B 1918  16.824   8.557   6.278 -0.0207 -0.1443  0.1965
    1DPPC   C3B 1919  16.582   8.951   6.081 -0.1160 -0.0718  0.0215
    1DPPC   C4B 1920  16.631   9.337   5.894  0.1631 -0.0983 -0.0669
    1DPPC   NC3 1921   3.909   9.765   5.772  0.0168 -0.2406  0.1094
    1DPPC   PO4 1922   4.249   9.746   6.127 -0.0900  0.1354 -0.2692
    1DPPC   GL1 1923   4.413   9.490   5.771 -0.0277 -0.1121 -0.0321
    1DPPC   GL2 1924   4.101   9.340   5.520 -0.1658  0.0972 -0.3861
    1DPPC   C1A 1925   4.597   9.370   5.428  0.1827 -0.0796  0.0572
    1DPPC   C2A 1926   4.846   9.262   5.063  0.2554 -0.0950 -0.0186
    1DPPC   C3A 1927   5.133   9.091   4.812  0.1205 -0.1159  0.1332
    1DPPC   C4A 1928   5.454   9.354   4.603 -0.2735 -0.1307  0.0009
    1DPPC   C1B 1929   4.322   9.056   5.188 -0.1225  0.0224 -0.0362
    1DPPC   C2B 1930   4.275   8.625   5.050  0.1043 -0.1718 -0.0721
    1DPPC   C3B 1931   4.507   8.427   4.716  0.1876  0.1993 -0.1847
    1DPPC   C4B 1932   4.718   8.245   4.382 -0.0561  0.2340 -0.0716
    1DPPC   NC3 1933  17.888  15.391   7.508  0.1933 -0.3126 -0.1103
    1DPPC   PO4 1934  17.802  15.067   7.272  0.1817  0.2692 -0.0990
    1DPPC   GL1 1935  17.564  14.995   6.857 -0.0365 -0.1095 -0.1124
    1DPPC   GL2 1936  17.530  15.321   6.790  0.2607  0.1695  0.2132
    1DPPC   C1A 1937  17.729  14.759   6.531 -0.1134 -0.3815  0.1039
    1DPPC   C2A 1938  17.821  14.799   6.089 -0.0359 -0.2230 -0.3522
    1DPPC   C3A 1939  17.961  14.843   5.665  0.0767  0.1554 -0.2393
    1DPPC   C4A 1940  18.010  14.870   5.183  0.0477  0.1660 -0.0710
    1DPPC   C1B 1941  17.638  15.249   6.353  0.2405  0.1219  0.1555
    1DPPC   C2B 1942  17.560  15.260   5.950  0.0799 -0.1231  0.2205
    1DPPC   C3B 1943  17.598  15.214   5.576  0.0132  0.1707  0.0762
    1DPPC   C4B 1944  17.561  15.523   5.223 -0.1732  0.1597  0.0021
    1DPPC   NC3 1945  26.243  22.195   7.248 -0.0633 -0.1310 -0.1121
    1DPPC   PO4 1946  25.968  22.350   6.937 -0.1104  0.2598 -0.2539
    1DPPC   GL1 1947  25.855  22.151   6.493  0.1339 -0.0292  0.3442
    1DPPC   GL2 1948  25.570  22.309   6.371 -0.0231  0.0181 -0.0834
    1DPPC   C1A 1949  25.859  22.193   5.992 -0.1301 -0.1468 -0.1582
    1DPPC   C2A 1950  25.969  22.527   5.740 -0.2401 -0.0698 -0.0358
    1DPPC   C3A 1951  26.337  22.812   5.710  0.2270  0.2930  0.2318
    1DPPC   C4A 1952  26.520  22.957   5.453  0.1180 -0.0386 -0.0434
    1DPPC   C1B 1953  25.367  22.219   5.889  0.1426 -0.3338 -0.1474
    1DPPC   C2B 1954  25.611  22.164   5.520  0.0400  0.0280  0.1055
    1DPPC   C3B 1955  25.930  22.256   5.314  0.0164  0.1650  0.1894
    1DPPC   C4B 1956  26.118  22.553   5.191  0.0473 -0.2260  0.0651
    1DPPC   NC3 1957  20.562  11.978   7.094  0.0137  0.0428  0.0881
    1DPPC   PO4 1958  20.191  12.002   6.967 -0.0276 -0.0906 -0.1709
    1DPPC   GL1 1959  20.012  11.855   6.454 -0.2448 -0.0856 -0.0891
    1DPPC   GL2 1960  19.998  11.496   6.385 -0.0489 -0.3449 -0.1724
    1DPPC   C1A 1961  19.987  11.826   6.004  0.0898 -0.2439 -0.1450
    1DPPC   C2A 1962  19.975  11.782   5.476  0.0249  0.0007 -0.0355
    1DPPC   C3A 1963  20.277  11.743   5.146  0.0468 -0.2535 -0.1302
    1DPPC   C4A 1964  20.352  11.587   4.711  0.0443  0.0531 -0.2682
    1DPPC   C1B 1965  19.933  11.285   6.101 -0.1456 -0.0808  0.0038
    1DPPC   C2B 1966  19.781  11.411   5.704  0.0288  0.3422  0.0624
    1DPPC   C3B 1967  19.765  11.347   5.280 -0.1640 -0.2230  0.0789
    1DPPC   C4B 1968  19.807  11.659   4.994 -0.0888  0.1688  0.4874
    1DPPC   NC3 1969  12.855  19.705   7.545 -0.0582 -0.4097  0.1274
    1DPPC   PO4 1970  13.200  19.768   7.248 -0.0532 -0.1587  0.3436
    1DPPC   GL1 1971  13.242  19.789   6.806 -0.1294 -0.0813  0.1588
    1DPPC   GL2 1972  12.915  19.831   6.576  0.1728 -0.0861 -0.0036
    1DPPC   C1A 1973  13.340  19.715   6.283  0.0920  0.0541  0.0491
    1DPPC   C2A 1974  13.143  19.564   5.871 -0.0375 -0.0361 -0.0277
    1DPPC   C3A 1975  13.243  19.580   5.454 -0.0091  0.0840 -0.0166
    1DPPC   C4A 1976  13.156  19.723   5.114 -0.0699 -0.0422  0.0208
    1DPPC   C1B 1977  12.712  19.713   6.197 -0.1531 -0.0142  0.2437
    1DPPC   C2B 1978  12.661  19.688   5.767  0.0988 -0.4223 -0.2206
    1DPPC   C3B 1979  12.627  19.772   5.358 -0.1003  0.0939  0.3073
    1DPPC   C4B 1980  12.708  19.756   4.926  0.2755  0.2322  0.1452
    1DPPC   NC3 1981  14.222  19.800   6.947 -0.1253  0.0812 -0.1708
    1DPPC   PO4 1982  14.676  19.677   7.058  0.2334  0.0366  0.0805
    1DPPC   GL1 1983  14.844  19.648   6.654 -0.0309 -0.3017 -0.0403
    1DPPC   GL2 1984  14.547  19.713   6.543 -0.1270  0.2083 -0.2237
    1DPPC   C1A 1985  15.106  19.527   6.241  0.1104  0.0382 -0.2644
    1DPPC   C2A 1986  15.094  19.566   5.733 -0.3099  0.1560 -0.2402
    1DPPC   C3A 1987  15.264  19.728   5.423  0.2196 -0.0171 -0.0723
    1DPPC   C4A 1988  15.290  20.117   5.349 -0.3598  0.2249  0.3753
    1DPPC   C1B 1989  14.694  19.690   6.033  0.1400  0.0965  0.1286
    1DPPC   C2B 1990  14.591  19.609   5.525  0.1476  0.1373 -0.0401
    1DPPC   C3B 1991  14.632  19.929   5.223  0.1031  0.0013 -0.1241
    1DPPC   C4B 1992  14.556  20.089   4.857 -0.3082  0.0307 -0.0489
    1DPPC   NC3 1993  19.855   9.517   7.693  0.1915 -0.0501 -0.0744
    1DPPC   PO4 1994  19.442   9.614   7.525  0.0852 -0.1941  0.3572
    1DPPC   GL1 1995  19.495   9.422   7.123  0.0910  0.0069  0.1152
    1DPPC   GL2 1996  19.561   9.138   6.878 -0.0292  0.1988 -0.0944
    1DPPC   C1A 1997  19.329   9.524   6.724  0.1750 -0.0982  0.2021
    1DPPC   C2A 1998  19.202   9.689   6.200 -0.2139 -0.0874  0.0926
    1DPPC   C3A 1999  19.265   9.579   5.856  0.0016  0.1425 -0.1078
    1DPPC   C4A 2000  19.284   9.591   5.412  0.1329  0.0539  0.0307
    1DPPC   C1B 2001  19.358   9.103   6.543 -0.4129 -0.1520  0.1244
    1DPPC   C2B 2002  19.149   9.183   6.125 -0.1752  0.2460  0.0441
    1DPPC   C3B 2003  19.161   9.126   5.735  0.1710  0.1733 -0.1334
    1DPPC   C4B 2004  18.907   9.112   5.384 -0.0676  0.1201  0.4146
    1DPPC   NC3 2005   7.094  12.890   7.028  0.2248 -0.0595  0.1790
    1DPPC   PO4 2006   7.115  12.954   6.511  0.0168  0.0677  0.0248
    1DPPC   GL1 2007   7.319  12.949   6.116 -0.0648  0.1429  0.0202
    1DPPC   GL2 2008   7.535  13.103   6.039 -0.1659  0.1897 -0.0677
    1DPPC   C1A 2009   7.384  12.851   5.625 -0.1851 -0.1168 -0.2483
    1DPPC   C2A 2010   7.359  12.584   5.273  0.0776  0.1158 -0.2005
    1DPPC   C3A 2011   7.372  12.253   4.988  0.0605  0.2988 -0.1614
    1DPPC   C4A 2012   7.270  12.235   4.674  0.3092 -0.0285 -0.1852
    1DPPC   C1B 2013   7.886  13.080   5.929  0.3666  0.0338 -0.2152
    1DPPC   C2B 2014   7.877  13.051   5.480 -0.0083  0.3255 -0.0837
    1DPPC   C3B 2015   7.669  12.923   5.110  0.0550  0.0874  0.1318
    1DPPC   C4B 2016   7.947  12.802   4.728 -0.0898 -0.1665  0.1191
    1DPPC   NC3 2017  18.879  22.727   6.465 -0.0354  0.5450  0.1553
    1DPPC   PO4 2018  19.278  23.074   6.355 -0.1099  0.0819  0.0636
    1DPPC   GL1 2019  19.398  22.724   6.095  0.2871 -0.2500 -0.0503
    1DPPC   GL2 2020  19.319  22.386   6.066  0.2393 -0.2408  0.1794
    1DPPC   C1A 2021  19.452  22.715   5.760  0.0683 -0.0828  0.1039
    1DPPC   C2A 2022  19.389  22.561   5.389 -0.2365 -0.0733 -0.0535
    1DPPC   C3A 2023  19.366  22.404   5.062  0.1757  0.1304  0.1963
    1DPPC   C4A 2024  19.177  22.404   4.737  0.2030 -0.3226  0.0711
    1DPPC   C1B 2025  19.417  22.206   5.679 -0.1937 -0.1747  0.2395
    1DPPC   C2B 2026  19.677  22.061   5.386 -0.0444 -0.0568  0.0721
    1DPPC   C3B 2027  20.002  21.621   5.253  0.0128 -0.2546 -0.0037
    1DPPC   C4B 2028  20.200  21.558   4.920  0.2338  0.1693 -0.1201
    1DPPC   NC3 2029  10.373  16.532   6.630  0.2158  0.0928  0.4275
    1DPPC   PO4 2030  10.245  16.922   6.933  0.0898  0.0605 -0.1363
    1DPPC   GL1 2031  10.378  17.021   6.460 -0.0333  0.0036 -0.0695
    1DPPC   GL2 2032  10.153  17.160   6.241 -0.0544  0.1307  0.2898
    1DPPC   C1A 2033  10.573  17.023   6.046 -0.0302 -0.2952  0.2580
    1DPPC   C2A 2034  10.619  17.063   5.504 -0.3103  0.0161 -0.0114
    1DPPC   C3A 2035  10.825  17.070   5.153 -0.1063 -0.1549  0.1164
    1DPPC   C4A 2036  11.016  17.152   4.759 -0.1919  0.0181 -0.1459
    1DPPC   C1B 2037  10.153  17.002   5.760  0.3519 -0.1483  0.0165
    1DPPC   C2B 2038  10.075  16.760   5.368  0.2237  0.0111 -0.1007
    1DPPC   C3B 2039   9.954  16.660   4.978  0.2852  0.0759 -0.2265
    1DPPC   C4B 2040   9.755  16.761   4.603 -0.3023 -0.1091  0.2339
    1DPPC   NC3 2041  17.935  11.960   7.243 -0.2675 -0.1450 -0.0111
    1DPPC   PO4 2042  17.520  11.963   6.999  0.1061  0.3662 -0.1854
    1DPPC   GL1 2043  17.261  12.003   6.663  0.0803  0.3121  0.1086
    1DPPC   GL2 2044  16.985  11.877   6.678  0.3497  0.2243  0.0553
    1DPPC   C1A 2045  17.291  11.891   6.259  0.0529  0.0525  0.1928
    1DPPC   C2A 2046  17.190  11.978   5.911 -0.1039 -0.0258  0.2839
    1DPPC   C3A 2047  17.268  12.091   5.549  0.2705 -0.2747  0.1113
    1DPPC   C4A 2048  17.501  12.244   5.129 -0.0233  0.4753  0.1488
    1DPPC   C1B 2049  16.807  11.716   6.352  0.2344 -0.1992 -0.0715
    1DPPC   C2B 2050  16.719  11.773   5.915  0.2037 -0.1539 -0.0068
    1DPPC   C3B 2051  16.658  11.726   5.484  0.0186 -0.1715 -0.0171
    1DPPC   C4B 2052  16.999  11.748   5.169  0.0966 -0.0769 -0.1536
    1DPPC   NC3 2053  19.381  16.127   7.071 -0.1100 -0.0452  0.1438
    1DPPC   PO4 2054  19.113  16.412   6.886 -0.0543 -0.0292  0.0329
    1DPPC   GL1 2055  19.103  16.532   6.561 -0.0958  0.0505 -0.1593
    1DPPC   GL2 2056  18.905  16.738   6.532  0.0610  0.1853  0.4102
    1DPPC   C1A 2057  19.184  16.728   6.123 -0.1596 -0.1429 -0.1031
    1DPPC   C2A 2058  19.221  16.820   5.704 -0.0721 -0.0162  0.0046
    1DPPC   C3A 2059  19.304  16.815   5.300  0.0039 -0.0433 -0.4730
    1DPPC   C4A 2060  19.366  16.560   5.018 -0.1086  0.1665 -0.1951
    1DPPC   C1B 2061  18.681  16.862   6.168 -0.0994 -0.0433  0.4024
    1DPPC   C2B 2062  18.722  16.828   5.776  0.0142 -0.2431  0.3988
    1DPPC   C3B 2063  18.797  16.994   5.465  0.3043  0.0498  0.1012
    1DPPC   C4B 2064  18.973  17.117   5.137 -0.5118  0.0144 -0.0130
    1DPPC   NC3 2065  15.835   8.307   7.742 -0.2314  0.1834  0.2123
    1DPPC   PO4 2066  15.881   7.887   7.770 -0.2451  0.0704  0.2205
    1DPPC   GL1 2067  15.754   7.990   7.356 -0.3181  0.0201 -0.2276
    1DPPC   GL2 2068  15.560   7.862   7.143  0.0505 -0.3003 -0.2298
    1DPPC   C1A 2069  16.058   8.172   7.078 -0.1369  0.1335 -0.2259
    1DPPC   C2A 2070  16.203   8.107   6.681  0.0009  0.1064  0.0367
    1DPPC   C3A 2071  16.149   7.935   6.267  0.0510  0.1250 -0.0758
    1DPPC   C4A 2072  16.329   7.672   5.963  0.0217  0.1144 -0.0187
    1DPPC   C1B 2073  15.629   7.867   6.580  0.0504  0.0891 -0.0563
    1DPPC   C2B 2074  15.627   7.857   6.175 -0.2792 -0.1261  0.0740
    1DPPC   C3B 2075  15.839   7.726   5.880  0.1594  0.1191 -0.0557
    1DPPC   C4B 2076  16.263   7.488   5.503 -0.2918  0.4257  0.1683
    1DPPC   NC3 2077  19.865  11.614   6.890  0.2374 -0.0812  0.0438
    1DPPC   PO4 2078  19.939  11.294   6.997 -0.0886  0.2671 -0.0640
    1DPPC   GL1 2079  20.095  11.088   6.620 -0.2106  0.1603 -0.2095
    1DPPC   GL2 2080  19.913  10.877   6.387  0.0298 -0.0657 -0.0264
    1DPPC   C1A 2081  20.364  11.115   6.276 -0.0903  0.0763  0.1770
    1DPPC   C2A 2082  20.450  10.983   5.846  0.0163 -0.0241  0.1951
    1DPPC   C3A 2083  20.307  10.818   5.544  0.1215  0.1479  0.1382
    1DPPC   C4A 2084  20.319  10.682   5.089  0.1411 -0.0144  0.1740
    1DPPC   C1B 2085  19.949  10.839   5.960  0.0355 -0.0934  0.0009
    1DPPC   C2B 2086  19.830  10.935   5.595  0.0231 -0.2613 -0.2152
    1DPPC   C3B 2087  19.807  10.829   5.137  0.0997 -0.0838 -0.2055
    1DPPC   C4B 2088  19.792  10.864   4.721  0.1610  0.1205 -0.1316
    1DPPC   NC3 2089  16.892   7.358   7.777 -0.0353 -0.2959 -0.0019
    1DPPC   PO4 2090  16.838   7.374   7.282  0.0083 -0.0367 -0.0693
    1DPPC   GL1 2091  16.737   7.498   6.847 -0.3210  0.2623  0.0842
    1DPPC   GL2 2092  16.894   7.287   6.570 -0.0776 -0.1721 -0.0369
    1DPPC   C1A 2093  16.572   7.753   6.496  0.2424 -0.0762 -0.1700
    1DPPC   C2A 2094  16.667   7.939   6.206  0.1728  0.2245 -0.1511
    1DPPC   C3A 2095  16.715   7.957   5.831 -0.3045 -0.0277 -0.0639
    1DPPC   C4A 2096  16.636   7.753   5.521 -0.2368  0.1718  0.0051
    1DPPC   C1B 2097  16.783   7.379   6.187 -0.1941  0.3907  0.0756
    1DPPC   C2B 2098  16.848   7.346   5.745 -0.1287 -0.0016 -0.0066
    1DPPC   C3B 2099  17.077   7.170   5.559 -0.2935 -0.0622 -0.0833
    1DPPC   C4B 2100  17.168   7.129   5.108  0.0363 -0.2572  0.0853
    1DPPC   NC3 2101  20.274   9.106   7.103 -0.0197 -0.0110  0.0595
    1DPPC   PO4 2102  19.997   9.453   7.192  0.0462  0.0663 -0.0144
    1DPPC   GL1 2103  20.067   9.401   6.795 -0.0461  0.0617 -0.0293
    1DPPC   GL2 2104  19.889   9.624   6.682  0.3263  0.2246 -0.2469
    1DPPC   C1A 2105  19.895   9.127   6.407 -0.3623  0.1442 -0.1000
    1DPPC   C2A 2106  19.642   9.224   6.025  0.1102 -0.0386  0.1033
    1DPPC   C3A 2107  19.620   9.254   5.637 -0.0179 -0.1842  0.1578
    1DPPC   C4A 2108  19.446   9.118   5.206  0.2308  0.0145  0.0502
    1DPPC   C1B 2109  19.782   9.703   6.266 -0.1754  0.0259 -0.1110
    1DPPC   C2B 2110  19.742   9.747   5.863 -0.1278  0.1363 -0.0849
    1DPPC   C3B 2111  19.751   9.908   5.482 -0.1495 -0.0176  0.2412
    1DPPC   C4B 2112  19.478  10.021   5.215  0.1145  0.0208  0.1517
    1DPPC   NC3 2113  23.727  27.445   6.243  0.3355 -0.1092  0.1098
    1DPPC   PO4 2114  23.368  27.527   6.389  0.1705  0.3322 -0.3219
    1DPPC   GL1 2115  23.239  27.288   6.021  0.3317 -0.0418  0.1577
    1DPPC   GL2 2116  22.904  27.311   5.861 -0.3052  0.0991  0.0263
    1DPPC   C1A 2117  23.207  27.190   5.535 -0.1882  0.0452 -0.0609
    1DPPC   C2A 2118  23.478  26.785   5.331 -0.1890 -0.2114 -0.0038
    1DPPC   C3A 2119  23.574  26.361   5.298 -0.1725  0.0527 -0.0832
    1DPPC   C4A 2120  23.332  26.006   5.251  0.0930  0.0037 -0.0877
    1DPPC   C1B 2121  22.646  27.197   5.454 -0.2153 -0.0113 -0.1539
    1DPPC   C2B 2122  22.480  27.201   5.024  0.3709  0.3056  0.1084
    1DPPC   C3B 2123  22.170  27.180   4.705 -0.2353 -0.2443 -0.0217
    1DPPC   C4B 2124  22.022  27.187   4.389  0.3632 -0.1522 -0.0251
    1DPPC   NC3 2125  18.202  14.963   6.883 -0.0152  0.1282  0.2046
    1DPPC   PO4 2126  18.229  15.413   7.078  0.3389  0.0510 -0.4321
    1DPPC   GL1 2127  17.985  15.460   6.649  0.0292  0.2669  0.0818
    1DPPC   GL2 2128  17.958  15.880   6.686  0.3191 -0.2217  0.0504
    1DPPC   C1A 2129  18.041  15.618   6.248 -0.2243 -0.1437 -0.0108
    1DPPC   C2A 2130  18.080  15.801   5.877 -0.1069 -0.2823 -0.1735
    1DPPC   C3A 2131  18.184  15.889   5.442  0.1605 -0.0763 -0.0781
    1DPPC   C4A 2132  18.287  16.096   5.070  0.0635 -0.0674 -0.1462
    1DPPC   C1B 2133  17.585  15.750   6.410  0.1928 -0.3938 -0.2592
    1DPPC   C2B 2134  17.560  15.738   5.993 -0.0892 -0.1501  0.0421
    1DPPC   C3B 2135  17.616  15.823   5.641 -0.0887  0.1543 -0.1138
    1DPPC   C4B 2136  17.751  16.126   5.254  0.0787 -0.1064 -0.1935
    1DPPC   NC3 2137  14.074  22.275   7.102  0.1274 -0.2561  0.2915
    1DPPC   PO4 2138  14.348  22.519   6.759  0.0214  0.0978  0.0361
    1DPPC   GL1 2139  14.365  22.315   6.271 -0.0822 -0.0323  0.0208
    1DPPC   GL2 2140  14.663  22.085   6.215  0.4292 -0.0598 -0.1635
    1DPPC   C1A 2141  14.354  22.193   5.838 -0.5480 -0.0081  0.0486
    1DPPC   C2A 2142  14.458  21.935   5.485  0.0989 -0.1564  0.1528
    1DPPC   C3A 2143  14.543  21.709   5.138  0.1793 -0.0005 -0.0514
    1DPPC   C4A 2144  14.440  21.544   4.782 -0.0623  0.0222  0.1502
    1DPPC   C1B 2145  14.791  21.893   5.877 -0.0768  0.0951 -0.1671
    1DPPC   C2B 2146  14.981  21.743   5.591 -0.1992  0.3052 -0.0265
    1DPPC   C3B 2147  15.067  21.699   5.284  0.2236  0.0188  0.4658
    1DPPC   C4B 2148  15.330  21.638   4.994  0.0239 -0.1793 -0.4879
    1DPPC   NC3 2149  12.886  12.968   7.510 -0.0075 -0.2033  0.1323
    1DPPC   PO4 2150  12.874  12.650   7.123 -0.2181  0.0012  0.4832
    1DPPC   GL1 2151  12.888  12.845   6.756  0.1404  0.0938 -0.2437
    1DPPC   GL2 2152  12.594  13.056   6.623  0.1789 -0.1030 -0.0848
    1DPPC   C1A 2153  13.001  12.779   6.340 -0.3505 -0.0621 -0.0439
    1DPPC   C2A 2154  13.045  12.743   5.896 -0.2323  0.1942 -0.3217
    1DPPC   C3A 2155  12.976  12.765   5.477  0.2943  0.0291 -0.1229
    1DPPC   C4A 2156  12.839  12.434   5.327  0.0824  0.0208  0.1337
    1DPPC   C1B 2157  12.622  12.961   6.120 -0.0672 -0.1909 -0.0008
    1DPPC   C2B 2158  12.568  12.800   5.785  0.1474  0.2241  0.4211
    1DPPC   C3B 2159  12.365  12.646   5.494 -0.2938  0.1288  0.4107
    1DPPC   C4B 2160  12.112  12.421   5.222 -0.1944  0.2831  0.0779
    1DPPC   NC3 2161   9.963  12.635   7.437 -0.0917  0.1862  0.0316
    1DPPC   PO4 2162   9.756  12.866   7.133  0.0814 -0.0586  0.0954
    1DPPC   GL1 2163   9.861  12.791   6.699 -0.2882  0.2531 -0.0477
    1DPPC   GL2 2164   9.544  12.645   6.552 -0.0909 -0.2472 -0.2721
    1DPPC   C1A 2165  10.099  12.636   6.495  0.1001  0.5167  0.0642
    1DPPC   C2A 2166  10.172  12.643   6.053 -0.1063 -0.0718 -0.1800
    1DPPC   C3A 2167  10.311  12.864   5.582 -0.0150  0.2483 -0.2125
    1DPPC   C4A 2168  10.359  12.843   5.248  0.1129 -0.1849  0.1324
    1DPPC   C1B 2169   9.697  12.578   6.120 -0.1200  0.1420 -0.0878
    1DPPC   C2B 2170   9.810  12.695   5.605  0.0549 -0.0739 -0.0130
    1DPPC   C3B 2171   9.741  12.674   5.218  0.0737 -0.4156  0.1708
    1DPPC   C4B 2172   9.658  12.432   5.015  0.0071  0.0321 -0.0248
    1DPPC   NC3 2173   8.896  18.498   6.988 -0.1519 -0.1874  0.1775
    1DPPC   PO4 2174   9.227  18.679   6.650 -0.1580 -0.1006 -0.0110
    1DPPC   GL1 2175   9.202  18.427   6.148 -0.0026  0.0660  0.2445
    1DPPC   GL2 2176   9.569  18.472   6.125  0.2239  0.1362 -0.1916
    1DPPC   C1A 2177   9.259  18.372   5.653 -0.2442  0.2564 -0.1259
    1DPPC   C2A 2178   9.290  18.336   5.217 -0.0549 -0.0955 -0.1181
    1DPPC   C3A 2179   9.226  18.368   4.851  0.3595  0.0697 -0.0539
    1DPPC   C4A 2180   9.199  18.799   4.689 -0.0679 -0.1779 -0.4785
    1DPPC   C1B 2181   9.723  18.369   5.736 -0.2410  0.3515 -0.1938
    1DPPC   C2B 2182   9.810  18.320   5.366 -0.4805  0.1038 -0.2855
    1DPPC   C3B 2183   9.961  18.351   4.852  0.0693 -0.1894 -0.1168
    1DPPC   C4B 2184  10.055  18.253   4.427  0.1682  0.1413 -0.1386
    1DPPC   NC3 2185  13.432  12.195   7.348  0.1862  0.0804  0.2025
    1DPPC   PO4 2186  12.965  12.071   7.297 -0.1001  0.0404 -0.1916
    1DPPC   GL1 2187  13.118  12.242   6.989  0.0481  0.0059 -0.0287
    1DPPC   GL2 2188  12.900  12.011   6.782  0.1491 -0.1446 -0.1623
    1DPPC   C1A 2189  13.232  12.296   6.532  0.1095 -0.1626  0.0633
    1DPPC   C2A 2190  13.213  12.216   6.156  0.0546  0.2800 -0.0736
    1DPPC   C3A 2191  13.200  12.256   5.697  0.0784  0.1851  0.0192
    1DPPC   C4A 2192  13.361  12.305   5.276  0.0726  0.2626  0.0133
    1DPPC   C1B 2193  12.842  11.974   6.414  0.0674 -0.2178 -0.0181
    1DPPC   C2B 2194  12.846  11.909   5.942  0.2565 -0.0118  0.0988
    1DPPC   C3B 2195  12.807  11.945   5.485 -0.0518 -0.3228  0.0566
    1DPPC   C4B 2196  12.619  11.779   5.109  0.0009  0.2564  0.2770
    1DPPC   NC3 2197  17.968   8.418   7.632  0.1200  0.0397  0.1744
    1DPPC   PO4 2198  18.211   8.279   7.262 -0.0767 -0.2010  0.2939
    1DPPC   GL1 2199  17.911   8.321   6.979 -0.2122  0.0257  0.2229
    1DPPC   GL2 2200  17.821   7.977   6.895 -0.0425  0.2387  0.2566
    1DPPC   C1A 2201  17.880   8.357   6.536  0.0547  0.1824  0.0279
    1DPPC   C2A 2202  17.980   8.243   6.230  0.2790 -0.3032 -0.0861
    1DPPC   C3A 2203  17.885   8.264   5.861  0.1928  0.0294  0.0192
    1DPPC   C4A 2204  17.699   8.350   5.368 -0.3480  0.0105 -0.0454
    1DPPC   C1B 2205  17.582   7.868   6.611  0.2632  0.2362  0.0706
    1DPPC   C2B 2206  17.574   7.959   6.102 -0.1992 -0.1070  0.0497
    1DPPC   C3B 2207  17.402   8.069   5.717  0.0567 -0.0090  0.2207
    1DPPC   C4B 2208  17.075   8.069   5.442 -0.1639 -0.1151 -0.0765
    1DPPC   NC3 2209   5.513   8.449   6.422  0.1681 -0.0917  0.0631
    1DPPC   PO4 2210   5.212   8.707   6.316 -0.0256 -0.1711  0.0738
    1DPPC   GL1 2211   5.221   8.847   5.827  0.0548 -0.1489 -0.0454
    1DPPC   GL2 2212   4.945   8.789   5.671  0.5091  0.0382  0.2243
    1DPPC   C1A 2213   5.358   9.002   5.460  0.0623 -0.1004 -0.1228
    1DPPC   C2A 2214   5.602   8.929   5.043  0.2356  0.1079 -0.0597
    1DPPC   C3A 2215   5.620   8.913   4.650  0.1080  0.0847 -0.1229
    1DPPC   C4A 2216   5.345   8.752   4.340  0.0270 -0.0766 -0.0703
    1DPPC   C1B 2217   4.839   8.818   5.268  0.1747  0.0624 -0.2078
    1DPPC   C2B 2218   4.715   8.810   4.938 -0.1969 -0.1313  0.3458
    1DPPC   C3B 2219   4.804   8.829   4.408  0.0489 -0.0229 -0.0093
    1DPPC   C4B 2220   4.933   8.561   4.097 -0.2663  0.0723  0.0866
    1DPPC   NC3 2221  10.640  12.012   7.629  0.1197  0.0405  0.0247
    1DPPC   PO4 2222  10.264  12.174   7.377 -0.1762 -0.3356 -0.1499
    1DPPC   GL1 2223  10.389  12.031   6.984 -0.2816 -0.3295  0.2317
    1DPPC   GL2 2224  10.695  11.967   6.949  0.1720 -0.0247 -0.2307
    1DPPC   C1A 2225  10.410  12.274   6.651 -0.0181 -0.0217  0.0516
    1DPPC   C2A 2226  10.434  12.273   6.214  0.0285 -0.0858 -0.1072
    1DPPC   C3A 2227  10.405  12.343   5.632  0.1638 -0.0315 -0.2329
    1DPPC   C4A 2228  10.221  12.332   5.244 -0.1933 -0.1414  0.0860
    1DPPC   C1B 2229  10.795  11.924   6.621  0.1859 -0.0615  0.2490
    1DPPC   C2B 2230  10.747  11.859   6.161 -0.1237  0.3636  0.1146
    1DPPC   C3B 2231  10.647  11.983   5.821  0.3319 -0.0249  0.1777
    1DPPC   C4B 2232  10.848  12.123   5.426  0.1988 -0.0607  0.1078
    1DPPC   NC3 2233  11.083  13.130   7.314 -0.0288  0.2741  0.0944
    1DPPC   PO4 2234  11.435  12.895   7.215 -0.1288 -0.1687  0.3625
    1DPPC   GL1 2235  11.618  12.965   6.790  0.3794  0.3265 -0.3249
    1DPPC   GL2 2236  11.907  12.794   6.860 -0.1901 -0.0256  0.0080
    1DPPC   C1A 2237  11.720  12.904   6.334 -0.3982  0.5553  0.0075
    1DPPC   C2A 2238  11.776  12.943   5.930  0.0593 -0.1447 -0.0290
    1DPPC   C3A 2239  11.777  12.851   5.480 -0.2494  0.0193 -0.2218
    1DPPC   C4A 2240  11.579  12.535   5.188  0.0016  0.1040 -0.1014
    1DPPC   C1B 2241  12.164  12.736   6.492  0.0531  0.3093  0.2659
    1DPPC   C2B 2242  12.181  12.686   6.124  0.2938 -0.1266  0.4110
    1DPPC   C3B 2243  12.023  12.548   5.792 -0.2795 -0.0003  0.0745
    1DPPC   C4B 2244  11.787  12.232   5.553 -0.0940 -0.1345 -0.1592
    1DPPC   NC3 2245  20.894   8.830   6.930  0.1183 -0.3539 -0.0652
    1DPPC   PO4 2246  20.445   8.621   7.051 -0.0973  0.2349  0.2596
    1DPPC   GL1 2247  20.509   8.696   6.629 -0.2107 -0.2686  0.1013
    1DPPC   GL2 2248  20.294   8.886   6.540  0.0780 -0.0982  0.2178
    1DPPC   C1A 2249  20.420   8.512   6.194  0.2112 -0.1741  0.0306
    1DPPC   C2A 2250  20.237   8.481   5.777 -0.2965  0.4587 -0.0453
    1DPPC   C3A 2251  20.305   8.478   5.424 -0.1918 -0.0676 -0.2153
    1DPPC   C4A 2252  20.730   8.223   5.434  0.1269  0.1278  0.0341
    1DPPC   C1B 2253  20.612   9.008   6.238 -0.1604 -0.1099  0.2014
    1DPPC   C2B 2254  20.600   8.887   5.786  0.2693 -0.0886  0.2913
    1DPPC   C3B 2255  20.704   9.002   5.431  0.0528 -0.1081 -0.0623
    1DPPC   C4B 2256  20.830   9.371   5.329 -0.1260 -0.2100 -0.2517
    1DPPC   NC3 2257  13.464   9.454   7.514 -0.1152  0.0823  0.0113
    1DPPC   PO4 2258  13.853   9.179   7.410 -0.3507 -0.1908  0.0508
    1DPPC   GL1 2259  14.025   9.050   7.109  0.5105 -0.0339  0.0689
    1DPPC   GL2 2260  14.307   9.144   7.065 -0.1064 -0.3335 -0.0622
    1DPPC   C1A 2261  13.876   9.237   6.718 -0.4000 -0.2203 -0.0569
    1DPPC   C2A 2262  13.871   9.144   6.341 -0.2471 -0.0625  0.0844
    1DPPC   C3A 2263  13.700   9.219   5.952 -0.0981  0.0659  0.0192
    1DPPC   C4A 2264  13.327   9.189   5.726 -0.0421  0.0813  0.2219
    1DPPC   C1B 2265  14.393   8.892   6.686 -0.1098  0.0785  0.0893
    1DPPC   C2B 2266  14.298   8.937   6.351 -0.1924 -0.2432 -0.2626
    1DPPC   C3B 2267  14.175   9.029   5.929 -0.1249  0.0557 -0.0977
    1DPPC   C4B 2268  14.328   8.687   5.663 -0.0133  0.0389  0.2153
    1DPPC   NC3 2269  20.188  16.357   7.639  0.1754 -0.2596 -0.0389
    1DPPC   PO4 2270  20.090  16.275   7.191 -0.3321 -0.0740  0.1329
    1DPPC   GL1 2271  19.949  16.471   6.819 -0.0173 -0.1236 -0.0494
    1DPPC   GL2 2272  20.205  16.628   6.763  0.2300 -0.0603 -0.0469
    1DPPC   C1A 2273  19.761  16.806   6.510 -0.0159  0.1457 -0.0179
    1DPPC   C2A 2274  19.676  16.952   6.144  0.0943  0.2441  0.0707
    1DPPC   C3A 2275  19.595  17.065   5.641 -0.1047  0.0268  0.0070
    1DPPC   C4A 2276  19.451  17.276   5.212  0.1581  0.0197  0.0891
    1DPPC   C1B 2277  20.198  16.582   6.351  0.1542 -0.1173 -0.2063
    1DPPC   C2B 2278  20.105  16.540   5.840 -0.1313 -0.3949  0.0570
    1DPPC   C3B 2279  19.947  16.723   5.523 -0.0420  0.1169  0.0276
    1DPPC   C4B 2280  19.790  16.863   5.130  0.0442 -0.0816 -0.0781
    1DPPC   NC3 2281  10.402  12.668   7.217 -0.3652 -0.0653 -0.2481
    1DPPC   PO4 2282  10.751  12.828   7.096  0.1930 -0.0192  0.0571
    1DPPC   GL1 2283  10.634  12.838   6.666  0.0146  0.1012  0.1463
    1DPPC   GL2 2284  10.566  13.177   6.597  0.2840  0.0709 -0.0985
    1DPPC   C1A 2285  10.574  12.842   6.173 -0.0249 -0.0363  0.1100
    1DPPC   C2A 2286  10.766  12.651   5.809 -0.0497 -0.0363  0.1217
    1DPPC   C3A 2287  10.797  12.668   5.358  0.1336 -0.1816  0.2518
    1DPPC   C4A 2288  10.969  12.653   4.950 -0.1832  0.1221  0.2250
    1DPPC   C1B 2289  10.443  13.456   6.207 -0.1495 -0.2033  0.0720
    1DPPC   C2B 2290  10.330  13.547   5.741 -0.2734 -0.0859  0.2423
    1DPPC   C3B 2291  10.323  13.433   5.302 -0.1323  0.1511 -0.1290
    1DPPC   C4B 2292  10.343  13.307   4.865  0.0714 -0.2382 -0.1528
    1DPPC   NC3 2293  18.697  17.444   7.490  0.0414 -0.1000  0.1124
    1DPPC   PO4 2294  18.340  17.726   7.476  0.2018  0.0104 -0.0270
    1DPPC   GL1 2295  18.459  17.704   7.106  0.1789  0.0727 -0.2041
    1DPPC   GL2 2296  18.741  17.609   7.035  0.2300 -0.0051  0.2103
    1DPPC   C1A 2297  18.294  17.675   6.693 -0.3959 -0.1644  0.2194
    1DPPC   C2A 2298  18.218  17.536   6.267 -0.0722 -0.0560  0.1134
    1DPPC   C3A 2299  18.007  17.242   5.947  0.0215  0.0460 -0.0946
    1DPPC   C4A 2300  17.778  16.826   5.762  0.2968  0.1103  0.0003
    1DPPC   C1B 2301  19.047  17.575   6.656  0.0446 -0.3637  0.2466
    1DPPC   C2B 2302  18.935  17.703   6.222  0.0134  0.2019 -0.0670
    1DPPC   C3B 2303  18.809  17.706   5.798  0.2816 -0.0257  0.2114
    1DPPC   C4B 2304  18.645  17.950   5.531 -0.1012  0.2274 -0.0261
    1DPPC   NC3 2305  14.103  20.706   6.972  0.0951 -0.2634 -0.2834
    1DPPC   PO4 2306  14.535  20.611   6.923  0.0174  0.0387 -0.0191
    1DPPC   GL1 2307  14.376  20.769   6.529 -0.0771 -0.2146 -0.3896
    1DPPC   GL2 2308  14.553  20.698   6.299 -0.1178  0.2245  0.0270
    1DPPC   C1A 2309  14.062  20.626   6.256 -0.1217 -0.0337  0.1119
    1DPPC   C2A 2310  13.643  20.635   6.065  0.1878 -0.0012 -0.1740
    1DPPC   C3A 2311  13.450  20.575   5.638 -0.3459  0.0999 -0.0415
    1DPPC   C4A 2312  13.100  20.598   5.417  0.1234 -0.1518  0.1114
    1DPPC   C1B 2313  14.730  20.441   5.970 -0.0023 -0.1213  0.3126
    1DPPC   C2B 2314  14.591  20.525   5.588  0.2281 -0.0342 -0.0702
    1DPPC   C3B 2315  14.408  20.804   5.421  0.0388  0.1664  0.1726
    1DPPC   C4B 2316  14.506  20.847   5.044 -0.1204 -0.0275  0.0833
    1DPPC   NC3 2317   7.574   2.040   6.767 -0.2515  0.0502 -0.1196
    1DPPC   PO4 2318   7.999   2.141   6.800 -0.1149  0.3747  0.2502
    1DPPC   GL1 2319   8.079   2.453   6.432 -0.0103 -0.2356  0.0729
    1DPPC   GL2 2320   8.083   2.757   6.599 -0.2794  0.0770  0.2378
    1DPPC   C1A 2321   8.314   2.808   6.191  0.3025  0.2896 -0.0422
    1DPPC   C2A 2322   8.397   2.824   5.680 -0.3767  0.0939 -0.1926
    1DPPC   C3A 2323   8.562   3.110   5.413 -0.1701  0.1598 -0.0575
    1DPPC   C4A 2324   8.647   3.369   5.155  0.0538 -0.2582 -0.2378
    1DPPC   C1B 2325   7.767   2.825   6.318  0.1440 -0.4692  0.1040
    1DPPC   C2B 2326   7.948   2.629   5.863 -0.1260 -0.2060 -0.1513
    1DPPC   C3B 2327   8.064   2.587   5.438  0.0055 -0.1288  0.0554
    1DPPC   C4B 2328   8.022   2.906   5.094 -0.0777  0.2032  0.0428
    1DPPC   NC3 2329   7.337  22.742   5.795  0.1222  0.3594  0.0446
    1DPPC   PO4 2330   7.271  23.201   5.742 -0.0144  0.1044  0.3453
    1DPPC   GL1 2331   7.527  23.373   5.450  0.3320 -0.1885  0.0168
    1DPPC   GL2 2332   7.899  23.312   5.369  0.0447  0.1248 -0.1354
    1DPPC   C1A 2333   7.534  23.632   5.066 -0.0419  0.0698 -0.1322
    1DPPC   C2A 2334   7.370  23.892   4.692 -0.0378  0.1154 -0.0870
    1DPPC   C3A 2335   7.194  24.244   4.776 -0.2632  0.2183  0.1909
    1DPPC   C4A 2336   6.806  24.198   4.749 -0.1123  0.1052 -0.0965
    1DPPC   C1B 2337   7.831  23.239   4.938 -0.0875 -0.0063  0.0568
    1DPPC   C2B 2338   7.908  23.521   4.608 -0.2081 -0.1544 -0.2462
    1DPPC   C3B 2339   7.862  23.955   4.600  0.0215  0.2202 -0.0315
    1DPPC   C4B 2340   8.112  24.316   4.448  0.1586  0.0744 -0.0011
    1DPPC   NC3 2341   7.288  11.985   7.150  0.1537  0.0195  0.0190
    1DPPC   PO4 2342   7.081  11.728   6.847 -0.1168 -0.1608 -0.3692
    1DPPC   GL1 2343   7.051  12.034   6.548 -0.3228  0.1483  0.1806
    1DPPC   GL2 2344   7.369  11.973   6.534  0.3361 -0.0206  0.0714
    1DPPC   C1A 2345   6.846  12.156   6.190 -0.2025  0.0924  0.2588
    1DPPC   C2A 2346   6.743  12.303   5.755 -0.0749  0.4000 -0.0311
    1DPPC   C3A 2347   6.840  12.455   5.256 -0.4018 -0.3278 -0.2964
    1DPPC   C4A 2348   6.873  12.692   4.914 -0.1355  0.0138  0.1372
    1DPPC   C1B 2349   7.337  11.885   6.132  0.0135 -0.1763 -0.1473
    1DPPC   C2B 2350   7.553  11.647   5.774  0.1861  0.1020  0.0498
    1DPPC   C3B 2351   7.838  11.396   5.450 -0.0205  0.2390 -0.0172
    1DPPC   C4B 2352   7.943  11.440   5.104 -0.1007 -0.0161 -0.1072
    1DPPC   NC3 2353  11.043  13.589   7.111 -0.2247  0.1628  0.1125
    1DPPC   PO4 2354  10.987  14.026   6.992 -0.0051 -0.0015  0.1008
    1DPPC   GL1 2355  10.751  14.126   6.526 -0.2134  0.0197  0.1926
    1DPPC   GL2 2356  10.726  13.975   6.317  0.0437 -0.1548 -0.3360
    1DPPC   C1A 2357  10.664  14.453   6.249  0.1088  0.0913  0.1298
    1DPPC   C2A 2358  10.732  14.255   5.836  0.1444  0.1287  0.2963
    1DPPC   C3A 2359  10.695  14.289   5.311  0.1492 -0.3574  0.0795
    1DPPC   C4A 2360  10.850  14.521   4.985 -0.1710  0.3387 -0.1563
    1DPPC   C1B 2361  10.750  13.759   5.909 -0.3216  0.0299  0.0458
    1DPPC   C2B 2362  10.707  13.824   5.517 -0.1544 -0.0546  0.0423
    1DPPC   C3B 2363  10.682  13.683   5.049  0.1098  0.0230 -0.0121
    1DPPC   C4B 2364  10.650  13.659   4.543 -0.1204  0.0438 -0.1421
    1DPPC   NC3 2365  17.627   9.760   7.224 -0.1532 -0.1300  0.1289
    1DPPC   PO4 2366  17.305   9.431   7.380 -0.1267  0.0194 -0.1204
    1DPPC   GL1 2367  17.365   9.340   6.979  0.2220  0.0816 -0.1250
    1DPPC   GL2 2368  17.349   9.652   6.825 -0.1742 -0.0050 -0.2338
    1DPPC   C1A 2369  17.556   9.203   6.559  0.4572 -0.1413 -0.0350
    1DPPC   C2A 2370  17.558   9.083   6.086 -0.1199 -0.0900 -0.2775
    1DPPC   C3A 2371  17.431   9.212   5.752 -0.4739 -0.2787 -0.0782
    1DPPC   C4A 2372  17.451   9.230   5.346  0.0361 -0.1146  0.0696
    1DPPC   C1B 2373  17.103   9.556   6.458 -0.0497  0.2135  0.0683
    1DPPC   C2B 2374  17.124   9.503   6.094 -0.0777  0.0747  0.0460
    1DPPC   C3B 2375  17.025   9.472   5.666  0.0570  0.0272  0.0411
    1DPPC   C4B 2376  16.848   9.407   5.293 -0.2985  0.0917  0.1878
    1DPPC   NC3 2377  10.587  15.723   6.808 -0.2032  0.2460 -0.2354
    1DPPC   PO4 2378  10.543  16.106   6.748 -0.1436  0.1752 -0.0411
    1DPPC   GL1 2379  10.792  15.953   6.410 -0.2370  0.1288 -0.1473
    1DPPC   GL2 2380  10.527  16.156   6.269  0.1146 -0.1334  0.1773
    1DPPC   C1A 2381  11.032  15.798   6.165 -0.2028  0.2585  0.3645
    1DPPC   C2A 2382  11.079  15.870   5.710 -0.1236  0.2552  0.2672
    1DPPC   C3A 2383  11.158  15.684   5.365  0.2435  0.1063  0.1233
    1DPPC   C4A 2384  11.328  15.720   4.903  0.0722 -0.0617  0.3539
    1DPPC   C1B 2385  10.718  16.137   5.894 -0.0309  0.0782  0.1287
    1DPPC   C2B 2386  10.692  15.968   5.454  0.0022 -0.0760  0.4477
    1DPPC   C3B 2387  10.825  15.965   5.041 -0.5652 -0.1051  0.0195
    1DPPC   C4B 2388  10.824  15.788   4.636 -0.0282  0.0062 -0.2236
    1DPPC   NC3 2389  19.134  16.913   7.138  0.1698 -0.2075  0.1054
    1DPPC   PO4 2390  18.796  17.081   7.104  0.1551 -0.3493  0.3611
    1DPPC   GL1 2391  18.706  17.196   6.702 -0.1042 -0.3117 -0.2053
    1DPPC   GL2 2392  18.300  17.171   6.583 -0.3079  0.0749 -0.1258
    1DPPC   C1A 2393  18.625  17.347   6.315  0.3096  0.1015 -0.0651
    1DPPC   C2A 2394  18.514  17.229   5.899  0.1272 -0.3419  0.1807
    1DPPC   C3A 2395  18.536  17.393   5.423 -0.0156  0.0797 -0.2131
    1DPPC   C4A 2396  18.291  17.772   5.230  0.1392  0.2691 -0.0548
    1DPPC   C1B 2397  17.890  17.193   6.454  0.1802 -0.2774 -0.1575
    1DPPC   C2B 2398  17.653  17.478   6.153  0.1008  0.1043 -0.0587
    1DPPC   C3B 2399  17.769  17.717   5.820 -0.3553 -0.0845  0.0312
    1DPPC   C4B 2400  17.934  18.045   5.493  0.1474 -0.2857 -0.2867
    1DPPC   NC3 2401  15.648  23.106   6.414  0.1723  0.1153 -0.1855
    1DPPC   PO4 2402  15.970  23.225   6.680  0.3052  0.2589 -0.0732
    1DPPC   GL1 2403  16.064  23.405   6.224 -0.0680 -0.1622 -0.2061
    1DPPC   GL2 2404  16.396  23.386   6.061 -0.2738 -0.2666  0.0541
    1DPPC   C1A 2405  16.019  23.630   5.818 -0.0725  0.3627 -0.0620
    1DPPC   C2A 2406  16.097  23.722   5.376  0.2586  0.1906  0.1369
    1DPPC   C3A 2407  16.101  23.982   5.036 -0.0628 -0.2419  0.0032
    1DPPC   C4A 2408  16.320  24.322   4.807 -0.1666 -0.0931  0.0083
    1DPPC   C1B 2409  16.462  23.539   5.629 -0.0294  0.3368  0.0755
    1DPPC   C2B 2410  16.551  23.548   5.192  0.0574  0.3155 -0.0974
    1DPPC   C3B 2411  16.593  23.462   4.854 -0.0788  0.1142 -0.0223
    1DPPC   C4B 2412  16.416  23.447   4.527  0.1372 -0.1069  0.3041
    1DPPC   NC3 2413  23.699  14.839   6.198  0.1429  0.2641 -0.1821
    1DPPC   PO4 2414  23.650  14.397   6.012  0.3949  0.0650  0.0459
    1DPPC   GL1 2415  23.591  14.320   5.527  0.2659  0.4058 -0.1069
    1DPPC   GL2 2416  23.652  14.660   5.348 -0.1610 -0.0022 -0.2413
    1DPPC   C1A 2417  23.124  14.284   5.487  0.3148  0.1238  0.1563
    1DPPC   C2A 2418  22.707  14.393   5.353 -0.0971 -0.0138  0.2160
    1DPPC   C3A 2419  22.542  14.720   5.126 -0.3395  0.0628 -0.0514
    1DPPC   C4A 2420  22.660  14.856   4.707  0.0779  0.1355 -0.0782
    1DPPC   C1B 2421  23.385  14.473   5.039  0.1204 -0.2202 -0.2387
    1DPPC   C2B 2422  23.049  14.361   4.730 -0.1043 -0.0775  0.0749
    1DPPC   C3B 2423  22.939  14.406   4.364 -0.0765  0.0936  0.1870
    1DPPC   C4B 2424  22.920  14.571   3.974  0.1922  0.1777  0.1205
    1DPPC   NC3 2425   9.934  10.919   7.655  0.2877 -0.2334 -0.1337
    1DPPC   PO4 2426   9.945  11.329   7.340  0.2616 -0.0699 -0.2839
    1DPPC   GL1 2427   9.852  11.030   7.110  0.0499  0.0767 -0.2623
    1DPPC   GL2 2428  10.044  10.701   7.076 -0.0781  0.0463  0.1454
    1DPPC   C1A 2429   9.584  10.990   6.699 -0.0109 -0.3110  0.0154
    1DPPC   C2A 2430   9.499  11.064   6.235 -0.2230 -0.1727 -0.0194
    1DPPC   C3A 2431   9.505  11.352   5.935  0.1088  0.1824  0.0964
    1DPPC   C4A 2432   9.291  11.290   5.499  0.0516  0.1137 -0.3254
    1DPPC   C1B 2433  10.009  10.738   6.647  0.0592  0.0618 -0.2079
    1DPPC   C2B 2434  10.196  10.724   6.289  0.1497 -0.1599  0.2573
    1DPPC   C3B 2435  10.278  10.756   5.934 -0.1176  0.1230  0.1224
    1DPPC   C4B 2436  10.308  11.027   5.690  0.2184 -0.1043  0.0147
    1DPPC   NC3 2437  13.682  13.186   7.038  0.0249 -0.1143  0.0397
    1DPPC   PO4 2438  13.871  12.927   7.390  0.0583  0.0785 -0.2652
    1DPPC   GL1 2439  13.777  12.710   6.936 -0.2019  0.1686 -0.1154
    1DPPC   GL2 2440  13.630  12.336   6.883 -0.0786 -0.1283  0.1678
    1DPPC   C1A 2441  14.005  12.573   6.555  0.1237  0.1556 -0.2551
    1DPPC   C2A 2442  14.024  12.515   6.202  0.1240  0.2124 -0.4619
    1DPPC   C3A 2443  13.995  12.459   5.799 -0.1256  0.1425  0.1473
    1DPPC   C4A 2444  13.890  12.454   5.377  0.1974  0.0382  0.2134
    1DPPC   C1B 2445  13.741  12.147   6.424 -0.2946 -0.0143  0.2871
    1DPPC   C2B 2446  13.689  12.177   6.020 -0.2397 -0.0147  0.0379
    1DPPC   C3B 2447  13.694  12.094   5.644 -0.1549  0.3303  0.1895
    1DPPC   C4B 2448  13.728  11.989   5.130 -0.0720  0.0914 -0.0336
    1DPPC   NC3 2449  19.514   7.863   7.039  0.0205  0.0330  0.1506
    1DPPC   PO4 2450  19.717   7.438   7.105 -0.2295 -0.1008  0.0726
    1DPPC   GL1 2451  19.554   7.401   6.713 -0.1352 -0.2384 -0.1190
    1DPPC   GL2 2452  19.435   7.649   6.520 -0.1371 -0.0762 -0.2163
    1DPPC   C1A 2453  19.653   7.217   6.243 -0.3238  0.2211 -0.0863
    1DPPC   C2A 2454  19.761   7.202   5.782 -0.0388 -0.1442  0.0868
    1DPPC   C3A 2455  19.925   7.199   5.408 -0.0473  0.0583 -0.3026
    1DPPC   C4A 2456  19.897   6.747   5.236 -0.1568 -0.2383 -0.1937
    1DPPC   C1B 2457  19.279   7.523   6.081  0.0567 -0.1491 -0.0078
    1DPPC   C2B 2458  19.245   7.325   5.739 -0.0282 -0.3726 -0.1102
    1DPPC   C3B 2459  19.052   7.291   5.394 -0.0702  0.0323 -0.4186
    1DPPC   C4B 2460  19.079   7.506   5.047  0.1610 -0.0851  0.0868
    1DPPC   NC3 2461  21.440  15.671   6.792  0.1133 -0.0796  0.1176
    1DPPC   PO4 2462  20.909  15.818   6.970 -0.4158 -0.1155  0.2403
    1DPPC   GL1 2463  20.693  15.882   6.609 -0.3604 -0.0979 -0.1088
    1DPPC   GL2 2464  20.399  15.743   6.495  0.0963  0.1943  0.6441
    1DPPC   C1A 2465  20.886  15.990   6.222  0.2882  0.0080  0.1596
    1DPPC   C2A 2466  20.888  15.866   5.714  0.2781 -0.1664  0.2442
    1DPPC   C3A 2467  21.162  15.915   5.337  0.2038  0.3122  0.0755
    1DPPC   C4A 2468  21.303  16.191   5.004  0.1050 -0.1927  0.0565
    1DPPC   C1B 2469  20.466  15.693   6.013 -0.2751  0.1984 -0.2779
    1DPPC   C2B 2470  20.439  15.703   5.578  0.0326 -0.2583 -0.0603
    1DPPC   C3B 2471  20.690  15.813   5.166 -0.1822  0.0078 -0.0698
    1DPPC   C4B 2472  20.891  15.532   4.880  0.2175  0.0174  0.0774
    1DPPC   NC3 2473  10.124  14.430   6.857 -0.0227  0.2606  0.2146
    1DPPC   PO4 2474   9.910  14.683   7.095  0.1566 -0.1024  0.1853
    1DPPC   GL1 2475   9.832  14.822   6.582  0.0107 -0.0189 -0.0792
    1DPPC   GL2 2476  10.107  14.728   6.458  0.3078  0.0815 -0.0637
    1DPPC   C1A 2477   9.717  14.747   6.182  0.0410  0.3454  0.0787
    1DPPC   C2A 2478   9.818  14.814   5.797  0.0693  0.0558 -0.3579
    1DPPC   C3A 2479   9.890  14.856   5.289 -0.2316  0.1843 -0.0245
    1DPPC   C4A 2480   9.873  14.765   4.831  0.1833  0.0788 -0.3376
    1DPPC   C1B 2481  10.230  14.567   6.033  0.2178 -0.1951  0.3174
    1DPPC   C2B 2482  10.253  14.592   5.579  0.3672 -0.0079 -0.2642
    1DPPC   C3B 2483  10.297  14.608   5.091  0.0780  0.3336  0.0331
    1DPPC   C4B 2484  10.261  14.461   4.789  0.2445 -0.0924  0.4795
    1DPPC   NC3 2485  13.068  13.939   7.204  0.1642  0.0066 -0.3880
    1DPPC   PO4 2486  13.348  14.368   7.283 -0.0669 -0.0041  0.1197
    1DPPC   GL1 2487  13.179  14.291   6.824 -0.0702 -0.0664  0.1063
    1DPPC   GL2 2488  13.405  14.384   6.735  0.3955 -0.3828 -0.0738
    1DPPC   C1A 2489  13.011  14.502   6.487 -0.2965  0.1519  0.1248
    1DPPC   C2A 2490  12.858  14.456   6.078 -0.1824  0.0184 -0.0336
    1DPPC   C3A 2491  13.023  14.369   5.660  0.3031 -0.1274  0.1045
    1DPPC   C4A 2492  13.039  14.208   5.262  0.1830 -0.2544  0.1273
    1DPPC   C1B 2493  13.454  14.333   6.351  0.1961 -0.0516  0.1547
    1DPPC   C2B 2494  13.479  14.198   5.922 -0.2999 -0.3514  0.4175
    1DPPC   C3B 2495  13.457  14.123   5.497  0.1107  0.0943 -0.1036
    1DPPC   C4B 2496  13.464  14.065   5.090  0.3169 -0.0785 -0.1377
    1DPPC   NC3 2497  12.526  14.248   7.815  0.2420  0.2265 -0.0331
    1DPPC   PO4 2498  12.596  14.124   7.363 -0.2673 -0.1807 -0.2128
    1DPPC   GL1 2499  12.426  14.083   6.911 -0.0041  0.2498  0.1399
    1DPPC   GL2 2500  12.729  14.061   6.750  0.0465  0.2653 -0.0480
    1DPPC   C1A 2501  12.411  14.405   6.585 -0.0552  0.0266 -0.1531
    1DPPC   C2A 2502  12.368  14.414   6.209  0.0685 -0.0579  0.2856
    1DPPC   C3A 2503  12.450  14.321   5.715 -0.0772  0.1261 -0.5010
    1DPPC   C4A 2504  12.603  14.470   5.315 -0.0735  0.2374 -0.1273
    1DPPC   C1B 2505  12.706  14.063   6.283 -0.3786  0.1163 -0.0637
    1DPPC   C2B 2506  12.678  13.984   5.959  0.1946  0.1383 -0.1221
    1DPPC   C3B 2507  12.727  13.836   5.551 -0.0279 -0.0954 -0.1035
    1DPPC   C4B 2508  12.570  13.989   5.181  0.0613  0.2062 -0.0869
    1DPPC   NC3 2509  14.227  13.364   7.487 -0.0329 -0.0994 -0.2028
    1DPPC   PO4 2510  14.666  13.158   7.267 -0.2538  0.1874  0.0636
    1DPPC   GL1 2511  14.598  13.138   6.919 -0.0713  0.1351 -0.3685
    1DPPC   GL2 2512  14.690  13.437   6.676 -0.0145  0.2339 -0.3678
    1DPPC   C1A 2513  14.896  12.975   6.574  0.4526 -0.0898 -0.2437
    1DPPC   C2A 2514  14.970  12.892   6.137  0.1950 -0.1716  0.1047
    1DPPC   C3A 2515  15.052  12.805   5.689 -0.3604 -0.0653  0.0632
    1DPPC   C4A 2516  14.945  12.886   5.220  0.3640  0.3769  0.1860
    1DPPC   C1B 2517  14.668  13.577   6.235 -0.1504  0.1732  0.0381
    1DPPC   C2B 2518  14.648  13.558   5.820  0.2416  0.1297 -0.0466
    1DPPC   C3B 2519  14.622  13.631   5.380 -0.0556 -0.2038 -0.1415
    1DPPC   C4B 2520  14.658  13.818   4.995  0.1969  0.2411  0.1426
    1DPPC   NC3 2521  10.356   8.269   7.640  0.1545 -0.2748  0.1867
    1DPPC   PO4 2522  10.346   7.805   7.423  0.2461 -0.2547 -0.0592
    1DPPC   GL1 2523  10.395   7.780   6.932  0.1731 -0.1096  0.3252
    1DPPC   GL2 2524  10.214   7.884   6.884  0.1053  0.0403  0.0481
    1DPPC   C1A 2525  10.299   7.700   6.424  0.0591  0.1072 -0.2017
    1DPPC   C2A 2526  10.373   7.561   6.019  0.0969 -0.1707  0.2832
    1DPPC   C3A 2527  10.411   7.334   5.670  0.1256  0.0654 -0.2992
    1DPPC   C4A 2528  10.363   7.272   5.268  0.0769  0.2141  0.2293
    1DPPC   C1B 2529  10.299   8.180   6.511 -0.1745  0.3289 -0.0145
    1DPPC   C2B 2530  10.235   8.062   6.099 -0.1962  0.1280  0.0216
    1DPPC   C3B 2531  10.022   7.901   5.810 -0.0216  0.2503  0.1058
    1DPPC   C4B 2532  10.059   7.672   5.447 -0.3397  0.3480 -0.0065
    1DPPC   NC3 2533   7.859  10.972   7.208 -0.0213 -0.1437  0.3719
    1DPPC   PO4 2534   7.800  11.207   6.840  0.2242 -0.1024  0.3210
    1DPPC   GL1 2535   7.700  11.271   6.362  0.0372  0.3081  0.1427
    1DPPC   GL2 2536   7.768  11.616   6.349 -0.1688  0.4587 -0.0067
    1DPPC   C1A 2537   7.650  11.048   5.922  0.0084  0.0085  0.0449
    1DPPC   C2A 2538   7.520  10.972   5.480  0.1198 -0.2039 -0.0232
    1DPPC   C3A 2539   7.432  10.762   5.008 -0.1453  0.0840  0.1732
    1DPPC   C4A 2540   7.558  10.853   4.574 -0.4089 -0.2002  0.2461
    1DPPC   C1B 2541   7.951  11.460   5.985 -0.2327 -0.0247 -0.7561
    1DPPC   C2B 2542   8.222  11.216   5.698 -0.3710  0.1523  0.0331
    1DPPC   C3B 2543   8.476  11.095   5.322  0.2624  0.0253 -0.0885
    1DPPC   C4B 2544   8.458  11.093   4.888 -0.0695  0.0768  0.2124
    1DPPC   NC3 2545  15.825  13.635   6.958 -0.0635 -0.2776 -0.1351
    1DPPC   PO4 2546  15.467  13.401   7.048 -0.3435  0.2497  0.2415
    1DPPC   GL1 2547  15.460  13.551   6.561  0.0458 -0.1317  0.0704
    1DPPC   GL2 2548  15.170  13.361   6.654 -0.0253  0.0981  0.3008
    1DPPC   C1A 2549  15.549  13.571   6.181 -0.0165 -0.0887  0.1386
    1DPPC   C2A 2550  15.501  13.629   5.800  0.0915 -0.1214 -0.2234
    1DPPC   C3A 2551  15.580  13.551   5.400 -0.0308 -0.0698 -0.1060
    1DPPC   C4A 2552  15.626  13.465   5.037 -0.0299  0.0046  0.2806
    1DPPC   C1B 2553  15.080  13.383   6.298  0.0806  0.0455  0.0053
    1DPPC   C2B 2554  15.087  13.356   5.887 -0.4966  0.1551 -0.1770
    1DPPC   C3B 2555  15.072  13.412   5.568 -0.1720  0.0340 -0.0886
    1DPPC   C4B 2556  15.004  13.403   5.082 -0.3444 -0.1057 -0.0487
    1DPPC   NC3 2557  11.260  15.276   7.120  0.1434 -0.1086 -0.0894
    1DPPC   PO4 2558  11.541  14.943   7.211  0.1209 -0.0174  0.1266
    1DPPC   GL1 2559  11.590  14.764   6.852 -0.1324  0.0781  0.1624
    1DPPC   GL2 2560  11.646  14.359   6.842  0.0798 -0.2172  0.3277
    1DPPC   C1A 2561  11.610  14.763   6.518  0.1453 -0.0670 -0.3011
    1DPPC   C2A 2562  11.532  14.581   6.107 -0.0426  0.1383  0.1594
    1DPPC   C3A 2563  11.568  14.460   5.626  0.1120  0.3721  0.1049
    1DPPC   C4A 2564  11.642  14.363   5.167  0.0377  0.0008  0.0009
    1DPPC   C1B 2565  11.891  14.360   6.476  0.0268 -0.1522  0.1325
    1DPPC   C2B 2566  11.969  14.274   5.956  0.2104  0.1557 -0.0890
    1DPPC   C3B 2567  12.013  14.336   5.480 -0.2642  0.2180 -0.0685
    1DPPC   C4B 2568  12.188  14.320   5.068 -0.0480  0.0102  0.1187
    1DPPC   NC3 2569   9.277  16.272   6.566  0.0340 -0.2111 -0.0697
    1DPPC   PO4 2570   9.576  15.917   6.570 -0.1080  0.0957 -0.1595
    1DPPC   GL1 2571   9.772  15.723   6.357 -0.2134 -0.4489  0.0754
    1DPPC   GL2 2572   9.860  15.447   6.484  0.1803 -0.3173 -0.0127
    1DPPC   C1A 2573   9.998  15.604   5.924 -0.2687 -0.0677 -0.3397
    1DPPC   C2A 2574  10.143  15.608   5.429  0.1131  0.0426  0.0676
    1DPPC   C3A 2575  10.290  15.813   5.091 -0.0965 -0.0345 -0.0220
    1DPPC   C4A 2576  10.420  16.222   4.936  0.1127  0.3198 -0.2725
    1DPPC   C1B 2577   9.572  15.372   6.030 -0.5311 -0.0207 -0.1545
    1DPPC   C2B 2578   9.677  15.259   5.597  0.2871 -0.0336 -0.2269
    1DPPC   C3B 2579   9.770  15.333   5.219  0.1813 -0.1011  0.0389
    1DPPC   C4B 2580   9.682  15.304   4.777 -0.0157 -0.1475  0.0208
    1DPPC   NC3 2581  17.530  10.689   7.442  0.0357  0.1091 -0.0829
    1DPPC   PO4 2582  17.269  10.236   7.269 -0.0052  0.1049 -0.1522
    1DPPC   GL1 2583  17.203  10.241   6.835  0.0330  0.2279 -0.2816
    1DPPC   GL2 2584  17.054  10.377   6.585 -0.0004  0.1047 -0.0360
    1DPPC   C1A 2585  17.347  10.011   6.478 -0.3583  0.0156  0.0131
    1DPPC   C2A 2586  17.321   9.930   5.972 -0.0038 -0.3068 -0.0217
    1DPPC   C3A 2587  17.204   9.926   5.614 -0.1951 -0.3962  0.0400
    1DPPC   C4A 2588  17.203   9.687   5.214 -0.0207 -0.1849  0.3871
    1DPPC   C1B 2589  17.210  10.387   6.178 -0.1566  0.0315  0.1196
    1DPPC   C2B 2590  17.082  10.414   5.749  0.0449 -0.0006 -0.0493
    1DPPC   C3B 2591  16.992  10.363   5.393 -0.1946 -0.0493  0.0221
    1DPPC   C4B 2592  16.900  10.182   4.968  0.0111 -0.0186  0.1144
    1DPPC   NC3 2593  14.658  16.498   7.041 -0.1424 -0.1795  0.1644
    1DPPC   PO4 2594  14.490  16.099   7.163  0.1404 -0.0467  0.0356
    1DPPC   GL1 2595  14.409  16.032   6.758 -0.0438 -0.0971 -0.2940
    1DPPC   GL2 2596  14.172  16.118   6.684 -0.1392  0.0285 -0.1754
    1DPPC   C1A 2597  14.436  16.197   6.272 -0.0554 -0.0080  0.0844
    1DPPC   C2A 2598  14.547  16.215   5.825  0.2865  0.0391 -0.0146
    1DPPC   C3A 2599  14.544  16.121   5.393  0.0718 -0.2097 -0.3563
    1DPPC   C4A 2600  14.488  16.232   5.040 -0.0995 -0.1196  0.0529
    1DPPC   C1B 2601  13.995  16.075   6.286 -0.2030 -0.1522  0.0682
    1DPPC   C2B 2602  14.058  16.189   5.835  0.0474  0.0212  0.0288
    1DPPC   C3B 2603  13.957  16.081   5.458 -0.1394 -0.0261  0.0715
    1DPPC   C4B 2604  14.035  15.865   5.124 -0.1168  0.0501 -0.1668
    1DPPC   NC3 2605  15.690   9.560   7.976 -0.1032  0.1781  0.3997
    1DPPC   PO4 2606  15.658   9.306   7.696  0.1938  0.1520 -0.0815
    1DPPC   GL1 2607  15.609   9.489   7.172  0.0800  0.0284 -0.1033
    1DPPC   GL2 2608  15.925   9.426   6.980  0.0322 -0.1354 -0.0458
    1DPPC   C1A 2609  15.708   9.785   6.783 -0.2312 -0.0334 -0.1240
    1DPPC   C2A 2610  15.799   9.819   6.322 -0.2052  0.2905 -0.3776
    1DPPC   C3A 2611  15.819   9.763   5.948  0.1562 -0.3042  0.0150
    1DPPC   C4A 2612  15.716   9.626   5.579  0.0061  0.2121 -0.0434
    1DPPC   C1B 2613  15.673   9.020   6.815  0.0627 -0.1117 -0.0176
    1DPPC   C2B 2614  15.665   8.798   6.445 -0.0765  0.2188  0.2623
    1DPPC   C3B 2615  15.767   8.718   6.009 -0.0558 -0.1256 -0.1550
    1DPPC   C4B 2616  16.046   8.557   5.601  0.2253  0.0980  0.1579
    1DPPC   NC3 2617   9.633  17.953   7.104 -0.0095  0.1158 -0.0936
    1DPPC   PO4 2618   9.496  17.798   6.808  0.3760  0.0582 -0.1179
    1DPPC   GL1 2619   9.540  18.161   6.508  0.0303  0.2314 -0.0351
    1DPPC   GL2 2620   9.876  18.111   6.363 -0.2017  0.2215  0.0615
    1DPPC   C1A 2621   9.432  18.017   6.080  0.0338 -0.0663 -0.0931
    1DPPC   C2A 2622   9.561  17.875   5.691  0.1144 -0.0705  0.0836
    1DPPC   C3A 2623   9.646  17.828   5.256 -0.0453 -0.2618  0.1693
    1DPPC   C4A 2624   9.564  18.012   4.927  0.3150  0.0781 -0.1268
    1DPPC   C1B 2625   9.925  17.998   6.023  0.0240  0.0242 -0.0486
    1DPPC   C2B 2626  10.152  17.917   5.688  0.1043  0.0487  0.0515
    1DPPC   C3B 2627  10.144  17.924   5.189  0.0980 -0.2243 -0.0884
    1DPPC   C4B 2628  10.059  17.768   4.844  0.1557  0.1053 -0.0374
    1DPPC   NC3 2629  17.274  12.539   7.552  0.0622 -0.0522 -0.0068
    1DPPC   PO4 2630  17.482  12.464   7.138  0.1212  0.1957  0.2900
    1DPPC   GL1 2631  17.526  12.456   6.754  0.0984 -0.0388  0.0017
    1DPPC   GL2 2632  17.519  12.794   6.644 -0.0268 -0.2357  0.0351
    1DPPC   C1A 2633  17.335  12.373   6.312 -0.2067 -0.0153  0.4499
    1DPPC   C2A 2634  17.215  12.597   5.954  0.2109 -0.0387 -0.0088
    1DPPC   C3A 2635  17.251  12.554   5.499 -0.0800 -0.1575  0.1052
    1DPPC   C4A 2636  17.169  12.634   5.017 -0.0024 -0.3352  0.1768
    1DPPC   C1B 2637  17.687  12.773   6.297 -0.0329 -0.2226  0.0577
    1DPPC   C2B 2638  17.629  12.831   5.800  0.0861  0.1740 -0.1235
    1DPPC   C3B 2639  17.981  12.893   5.543  0.0833 -0.2939 -0.0504
    1DPPC   C4B 2640  18.182  13.046   5.229 -0.1374 -0.3787 -0.2993
    1DPPC   NC3 2641  10.740  16.944   6.930 -0.0105  0.2165 -0.2641
    1DPPC   PO4 2642  10.839  17.490   7.093  0.1096  0.1465  0.1634
    1DPPC   GL1 2643  11.061  17.347   6.717  0.1801  0.0520  0.1532
    1DPPC   GL2 2644  10.934  17.157   6.467  0.3302 -0.1014  0.1966
    1DPPC   C1A 2645  11.305  17.667   6.430 -0.1124  0.0705 -0.3773
    1DPPC   C2A 2646  11.388  17.669   6.025 -0.1552  0.0770 -0.2348
    1DPPC   C3A 2647  11.408  17.632   5.565  0.1470 -0.2124 -0.1364
    1DPPC   C4A 2648  11.650  17.622   5.158 -0.0874 -0.1045  0.2556
    1DPPC   C1B 2649  11.261  17.211   6.118  0.1203  0.2208  0.0739
    1DPPC   C2B 2650  11.321  17.192   5.683  0.0242  0.0970 -0.0765
    1DPPC   C3B 2651  11.354  17.212   5.211 -0.0655  0.0850  0.3039
    1DPPC   C4B 2652  11.500  17.005   4.778  0.0037  0.1381  0.1629
    1DPPC   NC3 2653   9.672  16.962   6.913  0.1155  0.0453  0.1690
    1DPPC   PO4 2654   9.397  16.756   6.697 -0.0575  0.0865  0.0910
    1DPPC   GL1 2655   9.355  16.859   6.248 -0.1214 -0.0003  0.0239
    1DPPC   GL2 2656   9.291  16.566   6.132  0.2046  0.1519  0.0547
    1DPPC   C1A 2657   9.655  16.946   5.980 -0.0025 -0.2183 -0.0741
    1DPPC   C2A 2658   9.647  17.005   5.584  0.0236 -0.0033 -0.0575
    1DPPC   C3A 2659   9.621  17.033   5.142  0.1405  0.1603  0.2291
    1DPPC   C4A 2660   9.729  17.222   4.716 -0.1922  0.0425 -0.1858
    1DPPC   C1B 2661   9.267  16.451   5.741  0.1136 -0.0652  0.0582
    1DPPC   C2B 2662   9.113  16.410   5.302  0.1511 -0.1906  0.1256
    1DPPC   C3B 2663   8.871  16.398   4.870 -0.2551 -0.0348 -0.2300
    1DPPC   C4B 2664   8.436  16.578   4.851 -0.1059  0.0418 -0.0060
    1DPPC   NC3 2665  19.688  15.164   6.810  0.2705  0.0488  0.1222
    1DPPC   PO4 2666  19.384  15.515   6.969 -0.1313 -0.0866  0.2308
    1DPPC   GL1 2667  19.303  15.652   6.599 -0.2377  0.0232  0.2419
    1DPPC   GL2 2668  19.438  15.384   6.491  0.1977 -0.2117  0.1869
    1DPPC   C1A 2669  19.177  15.735   6.229  0.1673  0.1704 -0.0231
    1DPPC   C2A 2670  19.181  16.025   6.061 -0.3398 -0.0215 -0.0477
    1DPPC   C3A 2671  19.215  15.919   5.675 -0.1696 -0.4083  0.1314
    1DPPC   C4A 2672  19.219  16.061   5.306  0.1357 -0.1636 -0.0684
    1DPPC   C1B 2673  19.506  15.355   6.054 -0.1282 -0.0873 -0.0049
    1DPPC   C2B 2674  19.154  15.458   5.743 -0.2138  0.0900 -0.0584
    1DPPC   C3B 2675  18.994  15.574   5.327  0.2882 -0.0261  0.1838
    1DPPC   C4B 2676  18.993  15.739   4.880  0.2158  0.0334 -0.0951
    1DPPC   NC3 2677  13.632  11.771   8.122 -0.0578 -0.1870  0.2486
    1DPPC   PO4 2678  13.397  11.790   7.687  0.2514 -0.1228 -0.0161
    1DPPC   GL1 2679  13.295  11.685   7.209 -0.4183 -0.2021  0.1590
    1DPPC   GL2 2680  13.071  11.568   7.104 -0.2662 -0.0270 -0.0928
    1DPPC   C1A 2681  13.418  11.881   6.754 -0.2719  0.2473  0.2715
    1DPPC   C2A 2682  13.329  11.835   6.421 -0.1876 -0.0755  0.1101
    1DPPC   C3A 2683  13.352  11.807   5.957 -0.0259 -0.0828  0.3460
    1DPPC   C4A 2684  13.353  11.777   5.487  0.0228 -0.1742  0.3638
    1DPPC   C1B 2685  12.956  11.557   6.612 -0.2885 -0.1843 -0.1114
    1DPPC   C2B 2686  12.871  11.488   6.139  0.0474  0.1996  0.0182
    1DPPC   C3B 2687  13.022  11.473   5.795 -0.0608 -0.1614 -0.0499
    1DPPC   C4B 2688  12.980  11.496   5.301 -0.3266  0.0625  0.1425
    1DPPC   NC3 2689  15.845  16.432   7.130 -0.0700  0.1194 -0.0876
    1DPPC   PO4 2690  16.142  16.675   7.451 -0.1473 -0.1064  0.0598
    1DPPC   GL1 2691  16.295  16.922   7.019 -0.0023 -0.0142 -0.0634
    1DPPC   GL2 2692  16.174  16.605   6.863  0.0840 -0.0066  0.2062
    1DPPC   C1A 2693  16.350  17.098   6.638 -0.0926  0.1560 -0.0193
    1DPPC   C2A 2694  16.539  17.400   6.423  0.0555 -0.4578 -0.0003
    1DPPC   C3A 2695  16.682  17.465   6.030  0.0234  0.4151 -0.0963
    1DPPC   C4A 2696  16.794  17.387   5.614 -0.3353 -0.1458  0.0168
    1DPPC   C1B 2697  16.250  16.403   6.537 -0.1803  0.1294 -0.0055
    1DPPC   C2B 2698  16.295  16.488   6.143  0.0074 -0.1470 -0.1187
    1DPPC   C3B 2699  16.313  16.624   5.731  0.1944 -0.1840 -0.0278
    1DPPC   C4B 2700  16.660  16.825   5.443  0.2483 -0.0907  0.2136
    1DPPC   NC3 2701  16.354  12.186   7.374 -0.0707  0.0406  0.1964
    1DPPC   PO4 2702  16.488  12.047   6.874  0.1005  0.0435  0.2203
    1DPPC   GL1 2703  16.269  12.479   6.602 -0.0821  0.1694  0.1370
    1DPPC   GL2 2704  16.533  12.755   6.582 -0.1387  0.1245 -0.1683
    1DPPC   C1A 2705  16.013  12.589   6.275  0.1259 -0.1191  0.4090
    1DPPC   C2A 2706  16.000  12.640   5.942  0.2057 -0.3151  0.1706
    1DPPC   C3A 2707  15.912  12.534   5.520  0.0543  0.3361 -0.6795
    1DPPC   C4A 2708  16.178  12.531   5.171 -0.0681 -0.0745 -0.1538
    1DPPC   C1B 2709  16.538  12.640   6.246 -0.0156  0.1213 -0.2145
    1DPPC   C2B 2710  16.640  12.680   5.883 -0.0892 -0.2497 -0.0149
    1DPPC   C3B 2711  16.653  12.675   5.457 -0.0547  0.1895  0.2181
    1DPPC   C4B 2712  16.899  12.971   5.215  0.1371 -0.2316  0.1844
    1DPPC   NC3 2713  13.152  18.026   6.816  0.2614 -0.0210  0.2226
    1DPPC   PO4 2714  13.454  17.778   6.943 -0.1894 -0.0918  0.0635
    1DPPC   GL1 2715  13.577  17.933   6.551 -0.1079 -0.2029  0.0015
    1DPPC   GL2 2716  13.374  17.664   6.422 -0.1364 -0.1873  0.2707
    1DPPC   C1A 2717  13.657  17.980   6.061 -0.0998  0.0955  0.0866
    1DPPC   C2A 2718  13.655  17.962   5.647  0.0404 -0.0504  0.0115
    1DPPC   C3A 2719  13.709  17.946   5.222  0.2164  0.0924 -0.0717
    1DPPC   C4A 2720  13.783  18.283   5.002  0.1793 -0.0582 -0.1730
    1DPPC   C1B 2721  13.389  17.554   5.940  0.1061 -0.3396 -0.2281
    1DPPC   C2B 2722  13.424  17.536   5.518 -0.0300 -0.0418  0.1099
    1DPPC   C3B 2723  13.438  17.530   5.123 -0.0884 -0.0442 -0.0217
    1DPPC   C4B 2724  13.751  17.630   4.751 -0.0046  0.2942 -0.2511
    1DPPC   NC3 2725  18.148  10.178   7.125  0.0806  0.0470 -0.0346
    1DPPC   PO4 2726  18.007  10.702   7.179  0.1813  0.3309  0.0655
    1DPPC   GL1 2727  18.003  10.817   6.762 -0.2499  0.0824  0.1406
    1DPPC   GL2 2728  18.100  10.500   6.675 -0.1380  0.1152 -0.0431
    1DPPC   C1A 2729  17.666  11.062   6.386  0.1776 -0.0556  0.3100
    1DPPC   C2A 2730  17.453  10.829   6.105  0.0041  0.1653 -0.0469
    1DPPC   C3A 2731  17.405  10.814   5.661  0.1804 -0.1003  0.3332
    1DPPC   C4A 2732  17.423  10.584   5.246  0.1357 -0.1577  0.0813
    1DPPC   C1B 2733  18.006  10.725   6.312 -0.0783 -0.0483  0.1377
    1DPPC   C2B 2734  17.990  10.641   5.852  0.4041  0.1872 -0.5655
    1DPPC   C3B 2735  18.014  10.580   5.377  0.0905 -0.1243  0.1750
    1DPPC   C4B 2736  17.926  10.577   4.966  0.2070  0.0446 -0.0015
    1DPPC   NC3 2737  14.435   9.503   7.387 -0.1545  0.0169 -0.0792
    1DPPC   PO4 2738  14.387   9.934   7.426  0.0132  0.0311  0.2201
    1DPPC   GL1 2739  14.294  10.117   6.991  0.0078  0.0109 -0.1720
    1DPPC   GL2 2740  14.587  10.240   6.932 -0.0343  0.0271 -0.0413
    1DPPC   C1A 2741  14.157  10.125   6.582 -0.1528  0.1924  0.1446
    1DPPC   C2A 2742  14.245   9.977   6.143  0.1927 -0.2086 -0.2404
    1DPPC   C3A 2743  14.033   9.790   5.915  0.0582 -0.0033  0.2514
    1DPPC   C4A 2744  13.992   9.481   5.613 -0.0627 -0.1377 -0.1663
    1DPPC   C1B 2745  14.633  10.027   6.513  0.4013 -0.2717  0.1138
    1DPPC   C2B 2746  14.793   9.954   6.075  0.0017 -0.0434  0.2962
    1DPPC   C3B 2747  14.569  10.077   5.614  0.0785 -0.3738 -0.2315
    1DPPC   C4B 2748  14.115  10.022   5.484 -0.1466 -0.1442  0.1497
    1DPPC   NC3 2749  16.555   9.907   7.299 -0.0049 -0.0248  0.0806
    1DPPC   PO4 2750  16.747  10.346   7.042  0.0392  0.0301  0.0368
    1DPPC   GL1 2751  16.414  10.207   6.859 -0.1157 -0.1736 -0.3954
    1DPPC   GL2 2752  16.261   9.816   6.859 -0.2376  0.1057 -0.0897
    1DPPC   C1A 2753  16.209  10.207   6.576 -0.0513  0.0763 -0.0983
    1DPPC   C2A 2754  16.172  10.174   6.177  0.3384  0.0312  0.1935
    1DPPC   C3A 2755  16.128  10.092   5.685 -0.1948  0.0692 -0.3170
    1DPPC   C4A 2756  16.085   9.937   5.385 -0.1135  0.2744 -0.1339
    1DPPC   C1B 2757  16.286   9.694   6.497 -0.0288 -0.0019  0.0121
    1DPPC   C2B 2758  16.244   9.573   6.089 -0.0013 -0.2259 -0.2862
    1DPPC   C3B 2759  16.194   9.501   5.599  0.0734  0.2486  0.1343
    1DPPC   C4B 2760  16.125   9.422   5.223  0.1685 -0.0834  0.1675
    1DPPC   NC3 2761  10.093   5.818   7.272 -0.1620 -0.2409  0.0855
    1DPPC   PO4 2762  10.388   6.177   7.102 -0.1366 -0.1954 -0.0996
    1DPPC   GL1 2763  10.455   5.952   6.775  0.2629  0.3544  0.1309
    1DPPC   GL2 2764  10.420   5.600   6.700  0.1690  0.0682 -0.1226
    1DPPC   C1A 2765  10.186   5.824   6.306  0.1475  0.0128 -0.3678
    1DPPC   C2A 2766  10.327   5.760   5.828  0.0525 -0.0336  0.3024
    1DPPC   C3A 2767  10.235   5.489   5.452 -0.3353 -0.0986  0.1729
    1DPPC   C4A 2768  10.079   5.167   5.709 -0.0041  0.1316  0.2925
    1DPPC   C1B 2769  10.623   5.564   6.333  0.0657 -0.3087 -0.1992
    1DPPC   C2B 2770  10.675   5.422   5.941  0.3092  0.0906  0.1315
    1DPPC   C3B 2771  11.113   5.178   5.644 -0.0628 -0.0283  0.2928
    1DPPC   C4B 2772  11.255   5.087   5.252  0.0705  0.0983  0.3068
    1DPPC   NC3 2773  14.989  21.817   7.153  0.2408 -0.1011 -0.1658
    1DPPC   PO4 2774  14.902  21.840   6.720 -0.0077 -0.1557  0.0436
    1DPPC   GL1 2775  15.102  21.956   6.413 -0.0511 -0.1553 -0.0830
    1DPPC   GL2 2776  15.301  21.714   6.206 -0.1749  0.3409 -0.0448
    1DPPC   C1A 2777  15.182  22.157   6.105 -0.2437  0.1463  0.3033
    1DPPC   C2A 2778  15.307  22.146   5.674 -0.1887 -0.0500 -0.0134
    1DPPC   C3A 2779  15.482  22.207   5.251  0.2183 -0.1084  0.2021
    1DPPC   C4A 2780  15.305  22.124   4.931 -0.0408  0.1277  0.2177
    1DPPC   C1B 2781  15.175  21.392   5.984 -0.1812 -0.1231 -0.0271
    1DPPC   C2B 2782  15.346  21.237   5.624 -0.3279  0.1181  0.1492
    1DPPC   C3B 2783  15.344  21.192   5.272 -0.1346 -0.0823  0.1125
    1DPPC   C4B 2784  15.384  21.135   4.812 -0.0201  0.1353  0.1501
    1DPPC   NC3 2785  13.589  20.086   7.492  0.1752  0.3713  0.0301
    1DPPC   PO4 2786  13.889  20.172   7.100  0.2096 -0.1241  0.4074
    1DPPC   GL1 2787  13.752  20.012   6.726  0.1560 -0.1087  0.1509
    1DPPC   GL2 2788  13.854  19.726   6.548 -0.3402 -0.1700 -0.1460
    1DPPC   C1A 2789  13.768  20.186   6.323 -0.2421  0.0123  0.0395
    1DPPC   C2A 2790  13.807  20.167   5.861  0.2080 -0.0557  0.1464
    1DPPC   C3A 2791  13.873  19.979   5.470 -0.1435 -0.0331 -0.0502
    1DPPC   C4A 2792  14.088  19.971   5.109 -0.1028  0.0863  0.0812
    1DPPC   C1B 2793  13.756  19.742   6.094  0.0212  0.0799  0.0959
    1DPPC   C2B 2794  13.634  19.652   5.759 -0.2099 -0.0002  0.0340
    1DPPC   C3B 2795  13.697  19.511   5.332  0.1036 -0.0938  0.0327
    1DPPC   C4B 2796  13.667  19.672   5.019 -0.1081  0.1023 -0.1309
    1DPPC   NC3 2797  11.112  16.081   6.797 -0.0748 -0.0544  0.3633
    1DPPC   PO4 2798  10.828  16.464   6.886 -0.0160 -0.1348 -0.2253
    1DPPC   GL1 2799  10.886  16.473   6.473 -0.0479  0.0164  0.1102
    1DPPC   GL2 2800  10.772  16.674   6.329 -0.0632 -0.1848 -0.1964
    1DPPC   C1A 2801  11.108  16.308   6.126 -0.1111  0.2343 -0.0356
    1DPPC   C2A 2802  11.172  16.342   5.805  0.0661  0.0608 -0.0601
    1DPPC   C3A 2803  11.156  16.265   5.382  0.0149  0.1726  0.1048
    1DPPC   C4A 2804  11.265  16.190   4.998 -0.1201 -0.1115  0.1485
    1DPPC   C1B 2805  10.978  16.780   5.929  0.2754 -0.1862  0.3333
    1DPPC   C2B 2806  11.148  16.763   5.484  0.1087 -0.1299  0.1833
    1DPPC   C3B 2807  11.254  16.695   5.075  0.0371  0.2143 -0.0589
    1DPPC   C4B 2808  11.165  16.683   4.598 -0.0804 -0.0997  0.0237
    1DPPC   NC3 2809  18.787  13.497   7.254  0.0220 -0.1060 -0.0210
    1DPPC   PO4 2810  19.156  13.506   6.980  0.0691 -0.0079  0.1478
    1DPPC   GL1 2811  19.317  13.444   6.535 -0.1010  0.0513  0.1156
    1DPPC   GL2 2812  19.225  13.550   6.247 -0.0548 -0.1903 -0.2188
    1DPPC   C1A 2813  19.716  13.438   6.229  0.2721 -0.1984 -0.2133
    1DPPC   C2A 2814  19.664  13.339   5.827  0.0730 -0.1254 -0.1815
    1DPPC   C3A 2815  19.540  13.357   5.446 -0.2047 -0.0776 -0.0845
    1DPPC   C4A 2816  19.457  13.292   4.962 -0.1389 -0.2964 -0.0657
    1DPPC   C1B 2817  19.390  13.769   5.910  0.1014 -0.0851  0.2549
    1DPPC   C2B 2818  19.362  13.877   5.471 -0.0757 -0.4090  0.0245
    1DPPC   C3B 2819  19.314  13.945   5.011 -0.0463  0.1530  0.1313
    1DPPC   C4B 2820  19.205  13.647   4.710 -0.1206 -0.1412 -0.0964
    1DPPC   NC3 2821  19.789   6.906   7.172 -0.0090 -0.0343 -0.1568
    1DPPC   PO4 2822  19.350   6.781   7.056 -0.1010  0.1718 -0.0995
    1DPPC   GL1 2823  19.250   6.965   6.611  0.0854  0.0244  0.2167
    1DPPC   GL2 2824  19.076   7.273   6.578  0.0769  0.1473 -0.2229
    1DPPC   C1A 2825  19.129   7.004   6.148 -0.0667  0.4049  0.3002
    1DPPC   C2A 2826  18.964   6.924   5.757 -0.0747 -0.2910  0.1024
    1DPPC   C3A 2827  19.068   6.731   5.422 -0.0935  0.1798  0.0295
    1DPPC   C4A 2828  18.949   6.321   5.113  0.0800  0.1153 -0.1833
    1DPPC   C1B 2829  18.818   7.427   6.260  0.1752 -0.0289  0.0034
    1DPPC   C2B 2830  18.762   7.362   5.827  0.0861  0.2678  0.2960
    1DPPC   C3B 2831  18.562   7.268   5.501  0.0516  0.3570 -0.1817
    1DPPC   C4B 2832  18.384   7.182   5.113  0.2904 -0.2230 -0.3750
    1DPPC   NC3 2833  17.378  21.274   6.649 -0.1245 -0.1164 -0.1988
    1DPPC   PO4 2834  17.617  21.657   6.529  0.2140  0.3625 -0.1159
    1DPPC   GL1 2835  17.637  21.717   6.089 -0.2465 -0.1996  0.2122
    1DPPC   GL2 2836  17.885  21.806   6.110  0.1907 -0.0097  0.2396
    1DPPC   C1A 2837  17.505  21.701   5.754 -0.0454  0.0404 -0.0793
    1DPPC   C2A 2838  17.270  21.527   5.400  0.0627  0.2396 -0.0397
    1DPPC   C3A 2839  17.007  21.189   5.105  0.2552 -0.1514  0.0299
    1DPPC   C4A 2840  17.112  21.031   4.670 -0.2332  0.3448 -0.0340
    1DPPC   C1B 2841  17.969  21.965   5.685  0.3925  0.0098 -0.2541
    1DPPC   C2B 2842  17.723  22.010   5.379  0.1405 -0.0309 -0.2691
    1DPPC   C3B 2843  17.765  22.175   4.981 -0.1242 -0.0575  0.1921
    1DPPC   C4B 2844  17.841  22.349   4.626  0.0011  0.0518  0.2587
    1DPPC   NC3 2845  12.865   9.349   7.973 -0.2221 -0.0005 -0.0967
    1DPPC   PO4 2846  13.072   9.187   7.626 -0.0095 -0.1066 -0.1951
    1DPPC   GL1 2847  13.026   9.087   7.314  0.0850 -0.0454  0.0342
    1DPPC   GL2 2848  13.407   9.031   7.232  0.0920  0.2626 -0.0836
    1DPPC   C1A 2849  13.075   8.900   6.899 -0.2939 -0.0012  0.0301
    1DPPC   C2A 2850  13.156   8.625   6.552 -0.0531  0.1465 -0.2075
    1DPPC   C3A 2851  13.228   8.358   6.136  0.0548 -0.0440 -0.1873
    1DPPC   C4A 2852  13.389   8.526   5.717  0.2126 -0.1377  0.1038
    1DPPC   C1B 2853  13.583   8.795   6.867  0.0685 -0.3251 -0.1356
    1DPPC   C2B 2854  13.654   8.725   6.421  0.1286  0.0203 -0.1882
    1DPPC   C3B 2855  13.842   8.715   6.049  0.0458  0.1621 -0.1913
    1DPPC   C4B 2856  13.863   8.758   5.600 -0.0578  0.0534 -0.2250
    1DPPC   NC3 2857  11.699  19.821   6.991  0.0563  0.3552 -0.2078
    1DPPC   PO4 2858  12.077  19.699   6.805  0.0300 -0.0119 -0.1594
    1DPPC   GL1 2859  12.047  19.417   6.395 -0.0441 -0.0012 -0.1306
    1DPPC   GL2 2860  12.375  19.341   6.299  0.0952 -0.2173  0.0857
    1DPPC   C1A 2861  11.917  19.205   6.040 -0.1199  0.0688 -0.1280
    1DPPC   C2A 2862  11.952  19.185   5.645  0.0620  0.1812  0.1699
    1DPPC   C3A 2863  11.909  19.302   5.216 -0.1678  0.0681  0.1525
    1DPPC   C4A 2864  11.986  19.338   4.766  0.1379 -0.2014 -0.0178
    1DPPC   C1B 2865  12.371  19.341   5.909  0.3183  0.1176  0.1694
    1DPPC   C2B 2866  12.363  19.286   5.423  0.1304 -0.1008 -0.0015
    1DPPC   C3B 2867  12.432  19.317   5.098 -0.1608 -0.1244 -0.0086
    1DPPC   C4B 2868  12.477  19.312   4.634 -0.1691  0.2783 -0.0509
    1DPPC   NC3 2869   6.872  15.785   6.973  0.0709  0.0116  0.1347
    1DPPC   PO4 2870   6.828  15.573   6.555 -0.2912 -0.0572  0.0567
    1DPPC   GL1 2871   6.934  15.407   6.122 -0.0195  0.0637 -0.0034
    1DPPC   GL2 2872   6.639  15.103   6.052 -0.2676 -0.1718  0.4712
    1DPPC   C1A 2873   6.982  15.467   5.753 -0.0444 -0.0736 -0.2465
    1DPPC   C2A 2874   6.941  15.737   5.381  0.0333 -0.2639  0.3296
    1DPPC   C3A 2875   6.679  15.664   4.937 -0.0986 -0.0708 -0.0410
    1DPPC   C4A 2876   6.709  15.862   4.493  0.2766  0.2486 -0.0922
    1DPPC   C1B 2877   6.913  14.973   5.690 -0.0641  0.0083  0.1800
    1DPPC   C2B 2878   6.888  14.912   5.333  0.1608  0.1526 -0.0123
    1DPPC   C3B 2879   6.874  15.091   4.853 -0.1978 -0.0673  0.0076
    1DPPC   C4B 2880   6.930  15.407   4.569  0.0356  0.1311  0.0309
    1DPPC   NC3 2881  20.902  14.882   6.954  0.0185 -0.3069  0.1682
    1DPPC   PO4 2882  20.468  14.825   7.052 -0.2362  0.1232  0.0209
    1DPPC   GL1 2883  20.387  14.877   6.558 -0.0024  0.2320 -0.0596
    1DPPC   GL2 2884  20.737  14.782   6.514  0.1252  0.1068 -0.1843
    1DPPC   C1A 2885  20.149  14.658   6.188 -0.1666  0.1224  0.3557
    1DPPC   C2A 2886  20.077  14.555   5.824  0.2662  0.2756  0.0118
    1DPPC   C3A 2887  20.043  14.564   5.366  0.1719 -0.0166  0.3824
    1DPPC   C4A 2888  19.995  14.493   4.905 -0.5329  0.0682  0.2449
    1DPPC   C1B 2889  20.606  14.534   6.197 -0.0122 -0.1537 -0.1288
    1DPPC   C2B 2890  20.558  14.468   5.833 -0.2944  0.1166  0.0516
    1DPPC   C3B 2891  20.578  14.376   5.376 -0.1368 -0.0714  0.2498
    1DPPC   C4B 2892  20.512  14.356   4.938 -0.0952 -0.3420 -0.1966
    1DPPC   NC3 2893  14.295  12.809   7.124 -0.3603 -0.0007 -0.1582
    1DPPC   PO4 2894  14.171  13.288   7.005 -0.2047 -0.1062 -0.1075
    1DPPC   GL1 2895  14.130  13.064   6.743  0.2101  0.0631  0.1280
    1DPPC   GL2 2896  13.896  13.123   6.578  0.2541 -0.0911  0.0244
    1DPPC   C1A 2897  14.452  13.103   6.381 -0.0614  0.2018 -0.0500
    1DPPC   C2A 2898  14.568  13.141   6.009 -0.0226  0.0136  0.2382
    1DPPC   C3A 2899  14.694  13.108   5.563 -0.1976 -0.1198  0.1454
    1DPPC   C4A 2900  14.547  13.204   5.154 -0.0720 -0.2615 -0.0631
    1DPPC   C1B 2901  13.966  13.051   6.113  0.0976  0.1339 -0.1608
    1DPPC   C2B 2902  14.144  12.980   5.699  0.0395 -0.1059 -0.1661
    1DPPC   C3B 2903  14.079  12.910   5.288 -0.0526 -0.2666  0.3466
    1DPPC   C4B 2904  14.068  13.004   4.901  0.0255 -0.0827  0.1789
    1DPPC   NC3 2905  11.341   6.434   7.407  0.2465  0.1097 -0.0081
    1DPPC   PO4 2906  11.003   6.617   7.131 -0.1581  0.1221  0.0534
    1DPPC   GL1 2907  11.066   6.656   6.778 -0.4983  0.1183 -0.3397
    1DPPC   GL2 2908  11.034   6.943   6.651  0.1159 -0.1257  0.0052
    1DPPC   C1A 2909  10.948   6.555   6.284 -0.1228  0.4568 -0.2665
    1DPPC   C2A 2910  10.955   6.383   5.879 -0.0105  0.0925  0.0333
    1DPPC   C3A 2911  10.990   6.182   5.475 -0.2784 -0.0471 -0.1323
    1DPPC   C4A 2912  11.191   6.081   5.115  0.1100 -0.2430  0.3174
    1DPPC   C1B 2913  11.207   7.017   6.245 -0.1022 -0.1944 -0.0739
    1DPPC   C2B 2914  11.325   7.248   5.856  0.2459  0.0214 -0.0034
    1DPPC   C3B 2915  11.624   7.374   5.538  0.1435 -0.0251  0.2802
    1DPPC   C4B 2916  11.778   7.233   5.104  0.1173  0.2249 -0.0386
    1DPPC   NC3 2917  19.639  18.071   7.689 -0.1603  0.0447 -0.0353
    1DPPC   PO4 2918  19.250  17.838   7.411 -0.2820 -0.1365 -0.0889
    1DPPC   GL1 2919  19.290  18.121   6.962  0.3529 -0.1695 -0.3167
    1DPPC   GL2 2920  19.242  18.444   6.894 -0.1054 -0.0525 -0.0968
    1DPPC   C1A 2921  19.578  18.142   6.675 -0.3432 -0.1278  0.1957
    1DPPC   C2A 2922  19.893  18.334   6.318 -0.0413  0.0216  0.3401
    1DPPC   C3A 2923  20.158  18.699   6.039  0.0023 -0.0363 -0.0517
    1DPPC   C4A 2924  20.227  19.154   5.936 -0.1663 -0.0350 -0.0703
    1DPPC   C1B 2925  19.126  18.191   6.508  0.0857  0.0452 -0.0431
    1DPPC   C2B 2926  18.868  18.180   6.014 -0.0299 -0.2355  0.1406
    1DPPC   C3B 2927  18.744  18.436   5.742  0.2688  0.0550 -0.2637
    1DPPC   C4B 2928  18.865  18.830   5.614 -0.2853  0.2049 -0.0682
    1DPPC   NC3 2929  18.243  18.583   7.713 -0.2687 -0.1308  0.0498
    1DPPC   PO4 2930  18.302  18.971   7.525 -0.1018 -0.0327 -0.1690
    1DPPC   GL1 2931  18.202  18.973   7.124 -0.2279 -0.0656 -0.0057
    1DPPC   GL2 2932  17.968  18.994   6.953 -0.2663 -0.0722  0.2180
    1DPPC   C1A 2933  18.350  18.750   6.748  0.0385  0.1719  0.0303
    1DPPC   C2A 2934  18.260  18.668   6.309  0.1687  0.1072  0.4015
    1DPPC   C3A 2935  18.095  18.863   5.891 -0.2215  0.0210 -0.1071
    1DPPC   C4A 2936  17.735  18.952   5.600 -0.0165  0.1514 -0.1606
    1DPPC   C1B 2937  18.059  19.088   6.503 -0.1358 -0.0578 -0.0327
    1DPPC   C2B 2938  17.733  19.169   6.260  0.0616 -0.0754 -0.0372
    1DPPC   C3B 2939  17.404  19.164   5.969 -0.1386  0.0951 -0.0621
    1DPPC   C4B 2940  17.007  19.189   5.693  0.1470 -0.3696 -0.2065
    1DPPC   NC3 2941  14.959  10.855   7.283  0.1291  0.1426 -0.0186
    1DPPC   PO4 2942  14.609  10.683   7.134 -0.0502 -0.0226 -0.2205
    1DPPC   GL1 2943  14.839  10.652   6.790 -0.1010 -0.1375 -0.1757
    1DPPC   GL2 2944  15.041  10.855   6.825  0.0246  0.0751 -0.0433
    1DPPC   C1A 2945  14.672  10.522   6.466  0.2162 -0.1393  0.1872
    1DPPC   C2A 2946  14.640  10.483   6.008  0.0318  0.1994  0.3969
    1DPPC   C3A 2947  14.606  10.556   5.537  0.2930  0.2412 -0.0522
    1DPPC   C4A 2948  14.361  10.370   5.209  0.2684  0.1128 -0.0585
    1DPPC   C1B 2949  15.082  11.021   6.515 -0.0607  0.1470 -0.2591
    1DPPC   C2B 2950  15.042  10.865   6.132  0.0670 -0.2002  0.1811
    1DPPC   C3B 2951  15.005  10.919   5.634 -0.2090  0.1116 -0.0256
    1DPPC   C4B 2952  14.834  10.900   5.249 -0.1058  0.0598  0.0099
    1DPPC   NC3 2953  25.423   8.135   6.091 -0.0721 -0.2516  0.1343
    1DPPC   PO4 2954  25.399   7.702   5.939  0.1095 -0.0599  0.3442
    1DPPC   GL1 2955  25.205   7.867   5.637 -0.0141 -0.1376 -0.1614
    1DPPC   GL2 2956  25.346   7.895   5.379  0.0872 -0.0399  0.0321
    1DPPC   C1A 2957  24.947   8.157   5.252 -0.1356  0.0040  0.1924
    1DPPC   C2A 2958  24.899   8.515   4.926 -0.1005  0.0476 -0.0150
    1DPPC   C3A 2959  24.898   8.874   4.620  0.2886  0.1297 -0.0583
    1DPPC   C4A 2960  24.866   8.987   4.197 -0.1485  0.0822 -0.0635
    1DPPC   C1B 2961  25.379   8.181   5.070 -0.2241 -0.1968 -0.0912
    1DPPC   C2B 2962  25.429   8.138   4.618 -0.2838  0.0725  0.1648
    1DPPC   C3B 2963  25.735   8.023   4.341  0.0344  0.0332 -0.0756
    1DPPC   C4B 2964  26.011   7.798   4.500 -0.1125  0.0514  0.1287
    1DPPC   NC3 2965  10.608   9.390   7.787 -0.0259 -0.2522  0.1785
    1DPPC   PO4 2966  10.770   9.448   7.365 -0.1013 -0.0136 -0.0647
    1DPPC   GL1 2967  10.794   9.143   7.096  0.1251 -0.4454  0.0855
    1DPPC   GL2 2968  10.506   9.042   7.110 -0.0120 -0.0853  0.0273
    1DPPC   C1A 2969  10.849   8.936   6.763 -0.0949  0.0192  0.1037
    1DPPC   C2A 2970  10.929   8.824   6.279 -0.0035 -0.0015  0.3479
    1DPPC   C3A 2971  11.073   8.946   5.902  0.0375 -0.1471 -0.2497
    1DPPC   C4A 2972  11.393   8.829   5.624 -0.1632 -0.2278  0.1571
    1DPPC   C1B 2973  10.353   9.177   6.744  0.2022  0.1144 -0.0271
    1DPPC   C2B 2974  10.125   8.992   6.415 -0.1026  0.0974 -0.1338
    1DPPC   C3B 2975  10.065   9.284   5.977  0.0664 -0.4017 -0.3134
    1DPPC   C4B 2976  10.080   9.297   5.509 -0.0996 -0.0364 -0.1028
    1DPPC   NC3 2977  16.753   9.468   7.372 -0.2055  0.2742  0.1864
    1DPPC   PO4 2978  16.363   9.400   7.244  0.1407 -0.0449  0.2474
    1DPPC   GL1 2979  16.566   9.356   6.909 -0.0071  0.1170 -0.2664
    1DPPC   GL2 2980  16.887   9.408   6.890  0.1520 -0.0516  0.0520
    1DPPC   C1A 2981  16.154   9.236   6.624  0.0378  0.0868  0.0316
    1DPPC   C2A 2982  16.170   9.138   6.305 -0.2378  0.0378 -0.1643
    1DPPC   C3A 2983  16.150   9.103   5.892  0.0247 -0.1212 -0.2094
    1DPPC   C4A 2984  16.368   8.978   5.517 -0.0567  0.1598 -0.2641
    1DPPC   C1B 2985  17.053   9.132   6.668  0.0102 -0.0617  0.1140
    1DPPC   C2B 2986  17.083   9.058   6.329  0.1684  0.1643 -0.1255
    1DPPC   C3B 2987  17.021   8.950   5.869 -0.1487  0.2580 -0.0350
    1DPPC   C4B 2988  16.854   8.898   5.459 -0.3576  0.1728  0.0309
    1DPPC   NC3 2989   0.030  19.396   6.848  0.3361  0.1712 -0.1741
    1DPPC   PO4 2990  -0.166  19.544   6.449  0.1231 -0.0418 -0.1659
    1DPPC   GL1 2991  -0.130  19.683   5.997  0.3659  0.1490 -0.0039
    1DPPC   GL2 2992  -0.170  19.534   5.713  0.3141 -0.0254 -0.2367
    1DPPC   C1A 2993  -0.359  19.906   5.525  0.2946  0.0433 -0.2284
    1DPPC   C2A 2994  -0.492  20.056   5.105 -0.0148 -0.3167 -0.0601
    1DPPC   C3A 2995  -0.568  20.148   4.752 -0.0397 -0.0190 -0.0481
    1DPPC   C4A 2996  -0.851  20.176   4.440 -0.1254  0.1755 -0.3786
    1DPPC   C1B 2997  -0.322  19.485   5.275  0.0087 -0.1904  0.1187
    1DPPC   C2B 2998  -0.368  19.281   4.779  0.2441 -0.0223  0.1004
    1DPPC   C3B 2999  -0.671  19.362   4.520  0.2149 -0.1950  0.1250
    1DPPC   C4B 3000  -0.810  19.646   4.282  0.1629  0.2128  0.3215
    1DPPC   NC3 3001  18.398   4.338   7.293 -0.2156  0.3283 -0.2738
    1DPPC   PO4 3002  18.182   4.136   6.958  0.0899  0.0673 -0.1720
    1DPPC   GL1 3003  18.157   4.193   6.455 -0.0034 -0.1023  0.1941
    1DPPC   GL2 3004  17.805   4.160   6.471  0.1184  0.0237  0.1718
    1DPPC   C1A 3005  18.376   4.254   6.070  0.0719  0.3111  0.1607
    1DPPC   C2A 3006  18.432   4.179   5.683 -0.0414 -0.4558 -0.3247
    1DPPC   C3A 3007  18.510   4.125   5.302 -0.3492 -0.0688  0.1056
    1DPPC   C4A 3008  18.653   4.346   4.938  0.2148 -0.3052 -0.0744
    1DPPC   C1B 3009  17.711   4.244   6.137  0.1986 -0.2904 -0.2239
    1DPPC   C2B 3010  17.658   4.310   5.701 -0.0845  0.2182 -0.0387
    1DPPC   C3B 3011  17.553   4.254   5.279 -0.1774  0.0092 -0.0309
    1DPPC   C4B 3012  17.200   4.410   4.960  0.3170  0.0203  0.2144
    1DPPC   NC3 3013  15.219  21.413   6.583 -0.0543 -0.1780  0.0374
    1DPPC   PO4 3014  15.572  21.855   6.639 -0.2869 -0.0675 -0.0533
    1DPPC   GL1 3015  15.812  21.986   6.287  0.0399  0.1188 -0.1597
    1DPPC   GL2 3016  15.658  22.232   6.149 -0.0578 -0.0664  0.0000
    1DPPC   C1A 3017  16.084  21.861   5.913  0.2143 -0.1797 -0.0952
    1DPPC   C2A 3018  16.161  21.993   5.480  0.1351  0.0328 -0.0323
    1DPPC   C3A 3019  16.331  22.104   5.134 -0.1948  0.0545  0.0671
    1DPPC   C4A 3020  16.663  21.932   4.864  0.1006  0.4156  0.2736
    1DPPC   C1B 3021  15.798  22.415   5.727  0.1342  0.1062  0.1153
    1DPPC   C2B 3022  15.757  22.640   5.375  0.0527  0.1283  0.0419
    1DPPC   C3B 3023  15.869  22.417   4.987 -0.0148 -0.2642 -0.2415
    1DPPC   C4B 3024  16.124  22.077   4.698  0.1492  0.1042 -0.0095
    1DPPC   NC3 3025  17.799  13.696   7.197  0.3406 -0.0320  0.0565
    1DPPC   PO4 3026  17.414  13.486   7.043 -0.2086  0.0979  0.0679
    1DPPC   GL1 3027  17.466  13.799   6.847  0.0448 -0.3000 -0.2016
    1DPPC   GL2 3028  17.781  13.942   6.753  0.1544 -0.0391  0.2754
    1DPPC   C1A 3029  17.337  13.935   6.479  0.0432  0.0520  0.0966
    1DPPC   C2A 3030  17.338  13.867   5.965  0.1920 -0.0344  0.1220
    1DPPC   C3A 3031  17.407  13.991   5.566  0.0236  0.2261 -0.2433
    1DPPC   C4A 3032  17.394  14.245   5.178 -0.2659 -0.0486  0.2926
    1DPPC   C1B 3033  17.919  13.933   6.323  0.1027  0.0680  0.2322
    1DPPC   C2B 3034  17.820  13.927   6.006 -0.0512  0.1249 -0.2268
    1DPPC   C3B 3035  17.922  13.975   5.629 -0.1108  0.1362 -0.0635
    1DPPC   C4B 3036  17.770  13.867   5.218 -0.0545 -0.0009  0.0512
    1DPPC   NC3 3037  27.963   4.077   6.484  0.2433  0.0279 -0.0593
    1DPPC   PO4 3038  27.763   4.350   6.294 -0.0221 -0.2094  0.0346
    1DPPC   GL1 3039  27.707   4.198   5.884  0.0750 -0.3734 -0.1235
    1DPPC   GL2 3040  27.820   4.422   5.743  0.0355  0.1492 -0.0035
    1DPPC   C1A 3041  27.438   4.037   5.536  0.0010  0.0477 -0.4071
    1DPPC   C2A 3042  27.147   3.934   5.287  0.2168  0.0217 -0.1083
    1DPPC   C3A 3043  26.836   4.005   4.976  0.0799 -0.0023  0.1567
    1DPPC   C4A 3044  26.469   4.289   4.794 -0.1782  0.1034 -0.1875
    1DPPC   C1B 3045  27.625   4.602   5.448 -0.3560 -0.1204 -0.0650
    1DPPC   C2B 3046  27.741   5.018   5.163  0.0229  0.1508  0.3872
    1DPPC   C3B 3047  27.840   5.096   4.708  0.0576 -0.0097 -0.1748
    1DPPC   C4B 3048  27.682   5.265   4.313 -0.0936 -0.3954  0.2835
    1DPPC   NC3 3049  16.175  12.843   6.971  0.0549  0.2193 -0.2908
    1DPPC   PO4 3050  16.052  13.251   7.099 -0.0055 -0.0525  0.1046
    1DPPC   GL1 3051  15.944  13.205   6.680  0.3370 -0.2173 -0.3911
    1DPPC   GL2 3052  15.962  13.501   6.456  0.0467 -0.1224 -0.0182
    1DPPC   C1A 3053  16.220  13.036   6.338  0.1143 -0.2333  0.1814
    1DPPC   C2A 3054  16.303  13.004   5.932 -0.1512  0.0164  0.0099
    1DPPC   C3A 3055  16.294  12.958   5.552 -0.1274  0.1542  0.0292
    1DPPC   C4A 3056  15.932  12.995   5.179 -0.2546  0.1902  0.1066
    1DPPC   C1B 3057  15.961  13.377   6.015 -0.2678 -0.0716 -0.0428
    1DPPC   C2B 3058  15.962  13.346   5.640 -0.0931 -0.2048  0.0565
    1DPPC   C3B 3059  16.234  13.368   5.218 -0.1836 -0.1357 -0.1936
    1DPPC   C4B 3060  16.455  13.052   5.086  0.0615  0.1092  0.2584
    1DPPC   NC3 3061  15.086   4.871   7.511  0.4023  0.0573  0.1205
    1DPPC   PO4 3062  14.639   5.053   7.482  0.0339 -0.1731  0.1897
    1DPPC   GL1 3063  14.804   5.182   7.108  0.0321 -0.1798 -0.1820
    1DPPC   GL2 3064  14.719   5.495   7.060 -0.2143 -0.4962  0.1057
    1DPPC   C1A 3065  14.799   5.162   6.655  0.0103  0.1869 -0.1679
    1DPPC   C2A 3066  14.935   5.113   6.244 -0.2992  0.0427 -0.0047
    1DPPC   C3A 3067  15.126   5.280   5.851 -0.0805 -0.0136 -0.2951
    1DPPC   C4A 3068  15.336   5.548   5.565  0.0584 -0.3263  0.0863
    1DPPC   C1B 3069  14.766   5.760   6.721  0.2004 -0.0252  0.0895
    1DPPC   C2B 3070  14.806   6.055   6.438 -0.3175  0.0601  0.3302
    1DPPC   C3B 3071  14.690   6.101   6.026  0.2124 -0.0863  0.2186
    1DPPC   C4B 3072  14.565   6.077   5.645 -0.0169  0.1741  0.0210
    1DPPC   NC3 3073  13.404  21.327   6.715  0.2338 -0.0552 -0.1710
    1DPPC   PO4 3074  13.277  21.734   6.653  0.0093  0.2681 -0.0987
    1DPPC   GL1 3075  13.338  21.688   6.259  0.1023 -0.1699  0.1212
    1DPPC   GL2 3076  13.638  21.473   6.155  0.0357 -0.4050 -0.0727
    1DPPC   C1A 3077  13.214  21.608   5.809 -0.0099  0.3713  0.1769
    1DPPC   C2A 3078  13.150  21.541   5.418 -0.3954 -0.1196 -0.2194
    1DPPC   C3A 3079  13.113  21.241   5.079 -0.2088  0.1617 -0.2771
    1DPPC   C4A 3080  13.003  20.857   4.821  0.1019 -0.0990 -0.1403
    1DPPC   C1B 3081  13.664  21.451   5.661 -0.2059  0.0474 -0.1539
    1DPPC   C2B 3082  13.708  21.523   5.237 -0.0040  0.0703  0.1898
    1DPPC   C3B 3083  13.779  21.290   4.881 -0.0526  0.2008 -0.1640
    1DPPC   C4B 3084  14.008  21.128   4.576 -0.2295 -0.3745 -0.2414
    1DPPC   NC3 3085  22.227  15.700   6.710  0.1666 -0.0573 -0.1019
    1DPPC   PO4 3086  21.874  15.494   6.670 -0.0728  0.0686  0.0944
    1DPPC   GL1 3087  21.600  15.352   6.314 -0.1972 -0.1413 -0.1679
    1DPPC   GL2 3088  21.774  15.101   6.053 -0.0116 -0.0875 -0.2049
    1DPPC   C1A 3089  21.372  15.311   5.915 -0.0047 -0.2750 -0.0268
    1DPPC   C2A 3090  21.254  15.206   5.521  0.2174 -0.2105  0.1514
    1DPPC   C3A 3091  21.247  15.261   5.162 -0.3861 -0.3096 -0.0397
    1DPPC   C4A 3092  21.396  15.650   5.027  0.3101 -0.1053  0.1910
    1DPPC   C1B 3093  21.847  14.961   5.697 -0.1138  0.2274 -0.0579
    1DPPC   C2B 3094  21.928  14.783   5.260  0.2242 -0.0158  0.0039
    1DPPC   C3B 3095  22.180  14.841   4.826 -0.1453  0.0898  0.2377
    1DPPC   C4B 3096  22.256  14.976   4.449 -0.0354  0.2308  0.2773
    1DPPC   NC3 3097  15.039  18.031   7.508  0.0976  0.1957  0.0527
    1DPPC   PO4 3098  15.255  18.164   7.066  0.2369  0.1733 -0.0369
    1DPPC   GL1 3099  15.462  18.152   6.789 -0.0625  0.1491 -0.1173
    1DPPC   GL2 3100  15.424  17.849   6.732  0.1168  0.1338  0.0173
    1DPPC   C1A 3101  15.426  18.056   6.297  0.0807  0.1721  0.1411
    1DPPC   C2A 3102  15.500  17.902   5.926 -0.1797  0.2041 -0.0811
    1DPPC   C3A 3103  15.537  17.911   5.563 -0.2715  0.2237 -0.0913
    1DPPC   C4A 3104  15.681  17.844   5.197 -0.0006  0.1211  0.1958
    1DPPC   C1B 3105  15.507  17.541   6.439  0.0187 -0.0992 -0.0220
    1DPPC   C2B 3106  15.489  17.359   5.942 -0.4070 -0.1946  0.0921
    1DPPC   C3B 3107  15.491  17.229   5.557 -0.0473  0.0324  0.1662
    1DPPC   C4B 3108  15.688  17.334   5.153  0.0549  0.2625  0.2371
    1DPPC   NC3 3109  10.657   8.121   7.250 -0.0797  0.3203 -0.1203
    1DPPC   PO4 3110  10.911   8.355   7.455 -0.1903 -0.2650 -0.2409
    1DPPC   GL1 3111  10.765   8.561   7.061  0.2577  0.2565  0.0070
    1DPPC   GL2 3112  10.462   8.490   6.859 -0.1495 -0.0748  0.3130
    1DPPC   C1A 3113  10.856   8.372   6.581 -0.0733  0.0581 -0.1991
    1DPPC   C2A 3114  11.028   8.390   6.138  0.0971  0.2415  0.2299
    1DPPC   C3A 3115  10.926   8.504   5.807  0.2128  0.1012  0.1634
    1DPPC   C4A 3116  10.708   8.747   5.453  0.2524 -0.1884 -0.0432
    1DPPC   C1B 3117  10.488   8.684   6.451  0.0467 -0.0074  0.1099
    1DPPC   C2B 3118  10.493   8.543   6.048  0.2062 -0.0186  0.0940
    1DPPC   C3B 3119  10.457   8.335   5.632  0.0006 -0.2975 -0.0456
    1DPPC   C4B 3120  10.495   7.852   5.538 -0.1880  0.1939  0.2225
    1DPPC   NC3 3121  13.606  22.348   6.384  0.0508 -0.1179  0.0666
    1DPPC   PO4 3122  13.720  21.994   6.229 -0.0940  0.3230  0.1474
    1DPPC   GL1 3123  13.899  22.307   5.963 -0.3886  0.4030  0.2368
    1DPPC   GL2 3124  13.914  22.550   6.032  0.0359  0.0519 -0.3131
    1DPPC   C1A 3125  13.954  22.101   5.556  0.5524 -0.2057 -0.2931
    1DPPC   C2A 3126  14.021  21.933   5.222  0.1172 -0.0849 -0.1023
    1DPPC   C3A 3127  14.006  21.758   4.770 -0.0424 -0.1250 -0.4177
    1DPPC   C4A 3128  14.116  21.687   4.403  0.0935 -0.0077 -0.1057
    1DPPC   C1B 3129  13.786  22.620   5.597 -0.3213 -0.1174 -0.0814
    1DPPC   C2B 3130  13.600  22.321   5.258  0.1317 -0.0179 -0.1555
    1DPPC   C3B 3131  13.506  21.914   5.031 -0.1803  0.0177 -0.0105
    1DPPC   C4B 3132  13.468  21.656   4.775 -0.0406 -0.0192  0.2829
    1DPPC   NC3 3133  16.567  11.436   7.054 -0.2067  0.1035 -0.0264
    1DPPC   PO4 3134  16.290  11.140   6.977 -0.0055 -0.3060 -0.2289
    1DPPC   GL1 3135  16.452  11.143   6.595 -0.3172 -0.2258  0.3546
    1DPPC   GL2 3136  16.767  11.302   6.598  0.2785 -0.2036  0.0378
    1DPPC   C1A 3137  16.311  10.989   6.227 -0.0694 -0.0907 -0.0105
    1DPPC   C2A 3138  16.306  10.935   5.840  0.0652  0.1023  0.0737
    1DPPC   C3A 3139  16.360  10.971   5.384  0.1001 -0.0191 -0.3291
    1DPPC   C4A 3140  16.335  10.939   4.929  0.2179 -0.0540 -0.0784
    1DPPC   C1B 3141  16.701  11.307   6.128 -0.2486  0.0030 -0.0396
    1DPPC   C2B 3142  16.655  11.275   5.657  0.0562 -0.0774 -0.1396
    1DPPC   C3B 3143  16.765  11.276   5.306 -0.0466 -0.0828 -0.3136
    1DPPC   C4B 3144  16.543  11.442   4.950 -0.1180  0.0239 -0.3201
    1DPPC   NC3 3145  11.334  18.731   7.215 -0.2266  0.2326  0.1023
    1DPPC   PO4 3146  11.667  18.660   6.932  0.1801 -0.1047  0.0671
    1DPPC   GL1 3147  11.844  18.611   6.529 -0.1538  0.0736  0.1594
    1DPPC   GL2 3148  12.037  18.387   6.377 -0.0766  0.2303  0.1684
    1DPPC   C1A 3149  11.791  18.663   6.067  0.1238 -0.3448 -0.4924
    1DPPC   C2A 3150  11.773  18.512   5.728 -0.2574 -0.0690  0.1410
    1DPPC   C3A 3151  12.096  18.396   5.483  0.3068  0.1888 -0.0180
    1DPPC   C4A 3152  12.275  18.385   5.111  0.0113  0.2778 -0.0103
    1DPPC   C1B 3153  12.261  18.334   5.918 -0.2423  0.1108  0.0277
    1DPPC   C2B 3154  12.616  18.251   5.761 -0.2540  0.1451 -0.2249
    1DPPC   C3B 3155  12.775  18.370   5.353 -0.0556 -0.0563  0.0377
    1DPPC   C4B 3156  12.790  18.440   4.981  0.0457  0.0621  0.0902
    1DPPC   NC3 3157   1.643   4.129   6.655  0.1473  0.1238 -0.1734
    1DPPC   PO4 3158   1.789   3.798   6.383  0.2764  0.1854  0.0165
    1DPPC   GL1 3159   1.884   3.740   5.982  0.1329  0.1837  0.0169
    1DPPC   GL2 3160   1.542   3.722   5.890  0.3021  0.0389  0.0469
    1DPPC   C1A 3161   2.085   3.735   5.638  0.3322  0.0655  0.0512
    1DPPC   C2A 3162   2.312   3.641   5.280 -0.0284  0.0146  0.0440
    1DPPC   C3A 3163   2.703   3.513   4.920  0.0511  0.0974  0.0448
    1DPPC   C4A 3164   2.930   3.510   4.531  0.1703 -0.1934 -0.0755
    1DPPC   C1B 3165   1.632   3.774   5.356  0.1411  0.2108 -0.2152
    1DPPC   C2B 3166   1.897   3.480   5.109  0.0868 -0.0390 -0.2521
    1DPPC   C3B 3167   1.767   3.447   4.691  0.3498  0.1673  0.2036
    1DPPC   C4B 3168   1.960   3.316   4.326  0.0085 -0.1565 -0.3950
    1DPPC   NC3 3169   6.637  16.047   6.614 -0.1656 -0.2051 -0.0761
    1DPPC   PO4 3170   6.960  16.507   6.415 -0.1440  0.1664 -0.1982
    1DPPC   GL1 3171   6.976  16.432   6.028 -0.0123  0.1849  0.2345
    1DPPC   GL2 3172   7.080  16.697   5.851 -0.0619  0.0426 -0.2784
    1DPPC   C1A 3173   7.119  16.224   5.623  0.2031  0.2255 -0.1927
    1DPPC   C2A 3174   7.438  16.222   5.357  0.2158 -0.0666  0.1628
    1DPPC   C3A 3175   7.757  16.108   5.126 -0.0428  0.0009 -0.1340
    1DPPC   C4A 3176   7.784  16.082   4.769 -0.2489 -0.2054  0.1589
    1DPPC   C1B 3177   7.255  16.974   5.545 -0.1697  0.1293  0.1942
    1DPPC   C2B 3178   7.423  17.147   5.164 -0.0887  0.1844 -0.2862
    1DPPC   C3B 3179   7.691  17.251   4.826 -0.0211 -0.0282 -0.1435
    1DPPC   C4B 3180   7.727  17.634   4.699  0.0126  0.0220 -0.0559
    1DPPC   NC3 3181  18.507   7.494   7.749 -0.1660 -0.2482  0.1744
    1DPPC   PO4 3182  18.637   7.461   7.273 -0.0991  0.1161 -0.2390
    1DPPC   GL1 3183  18.591   7.369   6.784 -0.1634  0.1670  0.0039
    1DPPC   GL2 3184  18.617   7.633   6.648 -0.0240  0.2368  0.0553
    1DPPC   C1A 3185  18.360   7.330   6.319  0.1398  0.0832 -0.1119
    1DPPC   C2A 3186  18.260   7.321   5.929 -0.0279  0.1258 -0.2247
    1DPPC   C3A 3187  18.094   7.483   5.485 -0.1144  0.0738 -0.0932
    1DPPC   C4A 3188  18.257   7.652   5.032 -0.2002 -0.0739 -0.0273
    1DPPC   C1B 3189  18.953   7.849   6.462 -0.2989 -0.2128  0.2062
    1DPPC   C2B 3190  18.950   7.848   6.030 -0.2057  0.3859 -0.1199
    1DPPC   C3B 3191  18.994   7.774   5.643  0.3212 -0.1966 -0.1299
    1DPPC   C4B 3192  19.343   7.820   5.341 -0.0765 -0.3048  0.1081
    1DPPC   NC3 3193   8.241  14.657   6.855  0.0883  0.2529  0.1031
    1DPPC   PO4 3194   7.789  14.532   6.658  0.2294  0.3400 -0.2639
    1DPPC   GL1 3195   7.663  14.175   6.374 -0.1030 -0.1117  0.0170
    1DPPC   GL2 3196   7.947  13.974   6.262 -0.1463 -0.0033 -0.0454
    1DPPC   C1A 3197   7.512  14.102   6.043 -0.0136  0.2504 -0.1519
    1DPPC   C2A 3198   7.532  14.212   5.585  0.2470  0.1204  0.1097
    1DPPC   C3A 3199   7.665  14.223   5.086 -0.1798 -0.0943 -0.3353
    1DPPC   C4A 3200   7.659  14.547   4.709 -0.2276 -0.0938 -0.1862
    1DPPC   C1B 3201   8.067  13.944   5.893  0.2529 -0.3185  0.1759
    1DPPC   C2B 3202   7.969  14.059   5.484  0.2477 -0.0867 -0.1863
    1DPPC   C3B 3203   8.026  13.848   5.052 -0.3714  0.0967  0.1068
    1DPPC   C4B 3204   8.170  13.862   4.604 -0.0295  0.2349  0.0325
    1DPPC   NC3 3205  18.295  16.400   7.489 -0.1840 -0.3361 -0.1396
    1DPPC   PO4 3206  18.106  16.365   7.012  0.0750  0.2228  0.3036
    1DPPC   GL1 3207  18.208  16.325   6.615 -0.1742  0.3057 -0.0833
    1DPPC   GL2 3208  18.498  16.458   6.599 -0.3634  0.1411  0.0045
    1DPPC   C1A 3209  18.300  16.236   6.159 -0.0875 -0.0823 -0.0927
    1DPPC   C2A 3210  18.415  16.283   5.818 -0.0122 -0.0857 -0.0231
    1DPPC   C3A 3211  18.516  16.509   5.390 -0.1027  0.0453 -0.1217
    1DPPC   C4A 3212  18.330  16.883   5.099  0.0775 -0.1843 -0.2440
    1DPPC   C1B 3213  18.812  16.374   6.220 -0.0160 -0.0797  0.3754
    1DPPC   C2B 3214  18.878  16.352   5.781 -0.2014 -0.2476  0.0892
    1DPPC   C3B 3215  19.017  16.442   5.453  0.0651  0.1003 -0.1812
    1DPPC   C4B 3216  18.831  16.673   5.084 -0.1679  0.0503 -0.0777
    1DPPC   NC3 3217   9.821  18.537   6.725 -0.0900  0.0052  0.0787
    1DPPC   PO4 3218  10.033  18.069   6.841  0.1192  0.0477 -0.0694
    1DPPC   GL1 3219  10.310  17.933   6.477 -0.1635  0.1384 -0.0116
    1DPPC   GL2 3220  10.403  18.168   6.283  0.3274 -0.0999  0.1158
    1DPPC   C1A 3221  10.288  17.615   6.212  0.0321  0.0865  0.0440
    1DPPC   C2A 3222  10.356  17.442   5.789 -0.2360  0.0556 -0.1084
    1DPPC   C3A 3223  10.416  17.476   5.302  0.3092  0.1257  0.1515
    1DPPC   C4A 3224  10.545  17.341   4.895  0.1776 -0.0676  0.2393
    1DPPC   C1B 3225  10.560  18.015   5.904  0.4340 -0.1327 -0.1187
    1DPPC   C2B 3226  10.640  17.896   5.536  0.1719 -0.2347 -0.1405
    1DPPC   C3B 3227  10.673  17.892   5.066  0.0062 -0.3051 -0.1235
    1DPPC   C4B 3228  10.968  17.960   4.684  0.1829  0.2215  0.0151
    1DPPC   NC3 3229   2.487  16.125   6.168 -0.1766  0.3035 -0.1244
    1DPPC   PO4 3230   2.044  16.018   6.146 -0.1683  0.1606  0.0655
    1DPPC   GL1 3231   2.196  15.677   5.911 -0.1291  0.0199 -0.4402
    1DPPC   GL2 3232   2.369  15.825   5.697 -0.1063 -0.2724  0.0422
    1DPPC   C1A 3233   2.474  15.365   5.607  0.0520  0.0777 -0.1876
    1DPPC   C2A 3234   2.672  15.334   5.144  0.0743 -0.1604  0.0288
    1DPPC   C3A 3235   3.039  15.289   4.946  0.0308  0.1284 -0.0089
    1DPPC   C4A 3236   3.537  15.212   4.850 -0.0744  0.0617  0.3697
    1DPPC   C1B 3237   2.321  15.793   5.164 -0.3170 -0.1180 -0.2610
    1DPPC   C2B 3238   2.538  15.779   4.868 -0.1448 -0.1663 -0.2937
    1DPPC   C3B 3239   2.570  15.717   4.411  0.3645  0.0681 -0.0874
    1DPPC   C4B 3240   2.383  16.055   4.297  0.1321 -0.1359  0.1281
    1DPPC   NC3 3241  18.791  11.865   6.929 -0.0633  0.4451  0.0018
    1DPPC   PO4 3242  18.395  11.920   7.099  0.0901  0.0577 -0.2574
    1DPPC   GL1 3243  18.309  11.725   6.653 -0.0491  0.3472 -0.0280
    1DPPC   GL2 3244  18.602  11.562   6.468 -0.1471 -0.2827  0.0848
    1DPPC   C1A 3245  18.223  11.879   6.259 -0.3905 -0.0912  0.0873
    1DPPC   C2A 3246  18.117  11.845   5.798 -0.1287  0.1007  0.0165
    1DPPC   C3A 3247  17.923  11.944   5.431  0.0188 -0.2504  0.1125
    1DPPC   C4A 3248  17.905  11.956   4.935  0.0132  0.1379 -0.0124
    1DPPC   C1B 3249  18.591  11.573   5.996 -0.0660  0.2045  0.2567
    1DPPC   C2B 3250  18.458  11.503   5.590  0.1205  0.3601 -0.2567
    1DPPC   C3B 3251  18.132  11.564   5.285  0.0732 -0.1740 -0.0952
    1DPPC   C4B 3252  17.874  11.433   4.995  0.1962  0.1936  0.2446
    1DPPC   NC3 3253  14.179   8.719   7.544 -0.0048 -0.1190 -0.0422
    1DPPC   PO4 3254  14.061   8.337   7.617  0.3914  0.0545 -0.1887
    1DPPC   GL1 3255  14.108   8.222   7.214  0.0003  0.0198 -0.1730
    1DPPC   GL2 3256  13.947   8.455   6.962  0.0054 -0.1959  0.1935
    1DPPC   C1A 3257  14.307   8.091   6.839 -0.0158 -0.0711  0.2186
    1DPPC   C2A 3258  14.467   8.029   6.384  0.1385 -0.0856  0.1174
    1DPPC   C3A 3259  14.350   8.047   5.996  0.0315 -0.1856  0.3100
    1DPPC   C4A 3260  14.291   7.839   5.664 -0.0214 -0.1612  0.3256
    1DPPC   C1B 3261  14.114   8.506   6.572  0.2270  0.0375  0.1564
    1DPPC   C2B 3262  14.178   8.414   6.242 -0.0860  0.0047 -0.0631
    1DPPC   C3B 3263  13.938   8.282   5.844  0.3129 -0.1994  0.1989
    1DPPC   C4B 3264  14.049   8.283   5.450 -0.0404  0.3482 -0.2146
    1DPPC   NC3 3265  19.646  10.447   7.417 -0.0315  0.0081 -0.1390
    1DPPC   PO4 3266  19.392  10.496   7.074 -0.0981  0.0293  0.3771
    1DPPC   GL1 3267  19.103  10.559   6.675 -0.0890 -0.0364 -0.0787
    1DPPC   GL2 3268  19.363  10.684   6.509  0.1063  0.2358  0.0632
    1DPPC   C1A 3269  18.992  10.642   6.187 -0.1228 -0.1780  0.1716
    1DPPC   C2A 3270  18.875  10.668   5.703 -0.4689 -0.0188 -0.5209
    1DPPC   C3A 3271  18.900  10.517   5.369  0.2107  0.0362 -0.2503
    1DPPC   C4A 3272  18.884  10.546   4.938 -0.2469 -0.2706 -0.0609
    1DPPC   C1B 3273  19.495  10.670   6.073 -0.0364 -0.1900 -0.2833
    1DPPC   C2B 3274  19.420  10.621   5.650 -0.1545 -0.0416  0.0899
    1DPPC   C3B 3275  19.450  10.497   5.167  0.3421 -0.0241  0.3113
    1DPPC   C4B 3276  19.328  10.319   4.774 -0.0336  0.0966  0.1570
    1DPPC   NC3 3277  19.054  12.592   6.878  0.0235 -0.2961  0.0778
    1DPPC   PO4 3278  18.731  12.342   7.054 -0.1302 -0.0741  0.0939
    1DPPC   GL1 3279  18.534  12.350   6.702  0.4791  0.1104 -0.0301
    1DPPC   GL2 3280  18.641  12.621   6.561  0.0593  0.1631  0.2872
    1DPPC   C1A 3281  18.707  12.169   6.296  0.0346  0.0486  0.1717
    1DPPC   C2A 3282  18.589  12.093   5.897 -0.0431 -0.0747  0.1726
    1DPPC   C3A 3283  18.629  11.991   5.632 -0.0821  0.0769 -0.0785
    1DPPC   C4A 3284  18.376  12.044   5.318  0.1040 -0.1185 -0.0152
    1DPPC   C1B 3285  18.707  12.617   6.030 -0.2386 -0.1640  0.2523
    1DPPC   C2B 3286  18.660  12.907   5.664  0.1470  0.0078 -0.1680
    1DPPC   C3B 3287  18.627  12.795   5.171 -0.1368 -0.2237  0.0807
    1DPPC   C4B 3288  18.403  12.806   4.835 -0.0989  0.0981 -0.0207
    1DPPC   NC3 3289  16.130  11.833   7.090  0.3312  0.2420  0.0065
    1DPPC   PO4 3290  15.678  11.930   7.069 -0.2638 -0.2538  0.1265
    1DPPC   GL1 3291  15.783  11.914   6.615  0.2005  0.0046  0.2024
    1DPPC   GL2 3292  15.895  12.131   6.467  0.1528 -0.0903  0.5066
    1DPPC   C1A 3293  15.733  11.657   6.211  0.1413  0.1504  0.1822
    1DPPC   C2A 3294  15.672  11.649   5.801  0.0011 -0.0243 -0.1239
    1DPPC   C3A 3295  15.648  11.586   5.356 -0.0909  0.1244 -0.0393
    1DPPC   C4A 3296  15.474  11.599   4.924  0.1438  0.1950 -0.0179
    1DPPC   C1B 3297  15.831  12.165   6.047  0.0509 -0.1084  0.0080
    1DPPC   C2B 3298  15.667  12.101   5.578 -0.0663  0.0762  0.1541
    1DPPC   C3B 3299  15.762  12.103   5.204 -0.2390  0.4722 -0.1460
    1DPPC   C4B 3300  15.958  11.839   4.961  0.0555  0.2862  0.2909
    1DPPC   NC3 3301  16.491  21.257   6.940  0.1750 -0.0650  0.3771
    1DPPC   PO4 3302  16.929  21.258   6.815 -0.2449  0.0847 -0.2792
    1DPPC   GL1 3303  16.678  21.340   6.447  0.0831 -0.3040 -0.2322
    1DPPC   GL2 3304  16.690  21.079   6.356  0.1233 -0.2764  0.1682
    1DPPC   C1A 3305  16.667  21.803   6.165 -0.2230 -0.2038  0.1687
    1DPPC   C2A 3306  16.565  22.018   5.898 -0.1130 -0.3321  0.0374
    1DPPC   C3A 3307  16.696  21.968   5.437  0.2775  0.1145  0.1835
    1DPPC   C4A 3308  16.757  21.666   5.219  0.0014 -0.0294  0.1576
    1DPPC   C1B 3309  16.489  20.885   6.034 -0.2767 -0.1192  0.1802
    1DPPC   C2B 3310  16.476  20.766   5.622 -0.1247 -0.0303 -0.1177
    1DPPC   C3B 3311  16.602  20.549   5.233  0.1630 -0.0409 -0.0157
    1DPPC   C4B 3312  16.889  20.705   4.949  0.0443 -0.0132 -0.1113
    1DPPC   NC3 3313   9.726  16.046   7.074  0.1796  0.1574 -0.0610
    1DPPC   PO4 3314   9.818  16.336   6.781 -0.0488  0.1107 -0.1682
    1DPPC   GL1 3315  10.029  16.288   6.407 -0.1476  0.0622  0.2914
    1DPPC   GL2 3316   9.721  16.299   6.258  0.1581  0.0377 -0.1249
    1DPPC   C1A 3317  10.142  16.056   6.010  0.1729  0.2175  0.0216
    1DPPC   C2A 3318  10.144  16.030   5.614 -0.1543  0.0889  0.0698
    1DPPC   C3A 3319  10.032  16.241   5.258 -0.5967 -0.1680  0.0814
    1DPPC   C4A 3320   9.990  16.178   4.756  0.0604 -0.0938 -0.2137
    1DPPC   C1B 3321   9.782  16.529   5.807 -0.2882 -0.0958  0.1084
    1DPPC   C2B 3322   9.598  16.565   5.391  0.2096  0.1144  0.1358
    1DPPC   C3B 3323   9.455  16.484   4.992  0.0631 -0.0907 -0.0197
    1DPPC   C4B 3324   9.422  16.373   4.624 -0.2750  0.0350  0.1388
    1DPPC   NC3 3325  22.689  14.468   6.591 -0.0364 -0.0533 -0.0727
    1DPPC   PO4 3326  22.607  14.119   6.216 -0.2384  0.1036 -0.0545
    1DPPC   GL1 3327  22.701  14.132   5.833  0.0219 -0.1319  0.0145
    1DPPC   GL2 3328  22.428  14.347   5.767  0.0161  0.2530 -0.0294
    1DPPC   C1A 3329  22.494  13.962   5.416 -0.1747 -0.1749 -0.0228
    1DPPC   C2A 3330  22.550  14.069   5.010  0.1142 -0.0968 -0.2666
    1DPPC   C3A 3331  22.476  14.402   4.640 -0.1077  0.4542  0.0555
    1DPPC   C4A 3332  22.469  14.588   4.244  0.0864  0.0696  0.0551
    1DPPC   C1B 3333  22.198  14.334   5.472  0.0402  0.2001  0.1013
    1DPPC   C2B 3334  22.151  14.379   5.066 -0.2661  0.1637  0.4449
    1DPPC   C3B 3335  21.959  14.489   4.585 -0.0197  0.1517  0.1891
    1DPPC   C4B 3336  21.736  14.936   4.434 -0.2631  0.0445 -0.1331
    1DPPC   NC3 3337  18.544  14.658   7.214  0.2823  0.2044  0.0364
    1DPPC   PO4 3338  18.310  14.380   7.040  0.0214  0.0207 -0.1583
    1DPPC   GL1 3339  18.492  14.606   6.673  0.0444 -0.2589  0.0752
    1DPPC   GL2 3340  18.725  14.800   6.718  0.0049  0.2501  0.2310
    1DPPC   C1A 3341  18.743  14.362   6.346 -0.0073 -0.2246 -0.2990
    1DPPC   C2A 3342  18.778  14.461   5.958 -0.1896 -0.2644  0.0540
    1DPPC   C3A 3343  18.693  14.513   5.522 -0.1925  0.3462 -0.2828
    1DPPC   C4A 3344  18.717  14.325   5.178  0.2695  0.1730  0.3782
    1DPPC   C1B 3345  18.661  14.889   6.262 -0.0698 -0.2614 -0.0777
    1DPPC   C2B 3346  18.433  14.920   5.801  0.0948 -0.0175  0.4111
    1DPPC   C3B 3347  18.456  14.887   5.338  0.0370 -0.0230  0.1607
    1DPPC   C4B 3348  18.364  14.587   4.955  0.0574 -0.0108 -0.0159
    1DPPC   NC3 3349  15.433  11.194   7.274  0.0440  0.0238  0.3065
    1DPPC   PO4 3350  15.802  11.531   7.346 -0.0934  0.0611 -0.1238
    1DPPC   GL1 3351  15.677  11.466   6.929  0.1273  0.2007  0.2848
    1DPPC   GL2 3352  15.878  11.320   6.784 -0.0088 -0.1161  0.0382
    1DPPC   C1A 3353  15.408  11.376   6.611 -0.2366 -0.0306 -0.3508
    1DPPC   C2A 3354  15.351  11.336   6.211 -0.3602  0.0281 -0.2581
    1DPPC   C3A 3355  15.307  11.252   5.859 -0.0053  0.1704 -0.2319
    1DPPC   C4A 3356  15.403  11.156   5.423 -0.3691  0.3686 -0.0964
    1DPPC   C1B 3357  15.880  11.137   6.458 -0.0306  0.0592  0.0082
    1DPPC   C2B 3358  15.779  11.162   6.065 -0.0298 -0.1207 -0.0803
    1DPPC   C3B 3359  15.881  11.114   5.630 -0.0259  0.2471 -0.1518
    1DPPC   C4B 3360  15.850  10.989   5.237 -0.2182  0.0746  0.0174
    1DPPC   NC3 3361  26.523  10.933   6.548 -0.0319  0.3194 -0.4529
    1DPPC   PO4 3362  26.588  10.797   6.172  0.0857 -0.0849 -0.1116
    1DPPC   GL1 3363  26.205  10.724   5.885 -0.0800 -0.1649  0.0996
    1DPPC   GL2 3364  26.233  10.883   5.595  0.1771  0.2696  0.3906
    1DPPC   C1A 3365  25.974  10.412   5.663 -0.0971 -0.1770  0.2889
    1DPPC   C2A 3366  26.042  10.394   5.284  0.0362  0.0053  0.1857
    1DPPC   C3A 3367  26.055  10.473   4.902  0.1382 -0.3160  0.1006
    1DPPC   C4A 3368  25.782  10.664   4.619 -0.2049 -0.1474  0.2564
    1DPPC   C1B 3369  26.120  10.898   5.154 -0.1227  0.1407 -0.0692
    1DPPC   C2B 3370  26.321  10.894   4.771 -0.0177  0.4539 -0.1771
    1DPPC   C3B 3371  26.496  10.805   4.382  0.1496  0.0077 -0.0694
    1DPPC   C4B 3372  26.496  10.590   3.922  0.1834 -0.0123  0.0455
    1DPPC   NC3 3373  22.418   4.117   6.551 -0.0490  0.3287  0.3406
    1DPPC   PO4 3374  22.382   3.657   6.327 -0.0214  0.0633  0.0488
    1DPPC   GL1 3375  22.351   3.738   5.833 -0.1236 -0.1734  0.0884
    1DPPC   GL2 3376  22.262   3.521   5.731  0.3131 -0.0999 -0.1906
    1DPPC   C1A 3377  22.005   3.898   5.507  0.0928 -0.0470  0.2922
    1DPPC   C2A 3378  21.864   4.086   5.109  0.2750  0.1162  0.0024
    1DPPC   C3A 3379  21.886   3.937   4.671 -0.1506 -0.2972  0.3741
    1DPPC   C4A 3380  21.806   4.178   4.411  0.0245  0.1234  0.0028
    1DPPC   C1B 3381  22.420   3.546   5.379  0.0516 -0.0665 -0.1315
    1DPPC   C2B 3382  22.302   3.726   4.912  0.0127 -0.0009 -0.3838
    1DPPC   C3B 3383  22.424   3.791   4.596  0.0980 -0.2013 -0.2868
    1DPPC   C4B 3384  22.419   4.162   4.336  0.0895 -0.0854  0.0195
    1DPPC   NC3 3385   1.340  13.734   5.758  0.0293 -0.0487 -0.0389
    1DPPC   PO4 3386   1.449  14.219   5.866  0.2312  0.1690 -0.0749
    1DPPC   GL1 3387   1.443  14.042   5.376 -0.1571 -0.1528 -0.1096
    1DPPC   GL2 3388   1.498  13.656   5.329 -0.1190  0.3078 -0.1390
    1DPPC   C1A 3389   1.479  14.051   4.940  0.0202  0.1103 -0.0854
    1DPPC   C2A 3390   1.539  14.088   4.546  0.0495  0.0571  0.1588
    1DPPC   C3A 3391   1.487  13.819   4.165 -0.1771 -0.0201 -0.1146
    1DPPC   C4A 3392   1.601  13.773   3.827  0.0902  0.0171  0.3124
    1DPPC   C1B 3393   1.301  13.377   5.026 -0.0293 -0.0007  0.1489
    1DPPC   C2B 3394   1.193  13.275   4.565  0.2803  0.0873 -0.0073
    1DPPC   C3B 3395   1.058  13.475   4.232  0.2038  0.0295  0.1274
    1DPPC   C4B 3396   0.979  13.909   4.110 -0.0596 -0.0503 -0.0223
    1DPPC   NC3 3397   6.310   4.866   7.653 -0.0211 -0.1217 -0.1990
    1DPPC   PO4 3398   6.646   4.968   7.394  0.0157  0.1898  0.0204
    1DPPC   GL1 3399   6.735   4.641   7.126  0.2155 -0.0414  0.0232
    1DPPC   GL2 3400   6.987   4.611   6.945  0.1078 -0.1403 -0.4120
    1DPPC   C1A 3401   6.483   4.543   6.746  0.1169  0.0608 -0.0918
    1DPPC   C2A 3402   6.401   4.555   6.330 -0.1848  0.1823  0.0470
    1DPPC   C3A 3403   6.581   4.342   6.023  0.1663  0.2022 -0.1206
    1DPPC   C4A 3404   6.794   4.267   5.691  0.0454  0.3429  0.0757
    1DPPC   C1B 3405   6.999   4.605   6.457  0.1734 -0.1017 -0.3815
    1DPPC   C2B 3406   6.932   4.681   5.990 -0.0884  0.2367 -0.0771
    1DPPC   C3B 3407   6.953   4.954   5.702  0.2673 -0.0709 -0.0185
    1DPPC   C4B 3408   7.044   5.166   5.371  0.1837 -0.3262 -0.0161
    1DPPC   NC3 3409  17.009  10.709   7.226  0.0345 -0.3183  0.2571
    1DPPC   PO4 3410  17.059  11.136   6.934 -0.1288 -0.1518 -0.0227
    1DPPC   GL1 3411  17.218  10.903   6.588  0.2440  0.1063  0.0356
    1DPPC   GL2 3412  16.913  10.875   6.347  0.0138 -0.2726 -0.1198
    1DPPC   C1A 3413  17.510  10.577   6.563  0.1761  0.2285  0.0423
    1DPPC   C2A 3414  17.684  10.354   6.172  0.1408  0.0737  0.0487
    1DPPC   C3A 3415  17.570  10.361   5.743 -0.1985 -0.1004 -0.1062
    1DPPC   C4A 3416  17.574  10.120   5.290  0.2608  0.2448  0.0496
    1DPPC   C1B 3417  16.860  10.893   5.929 -0.4125  0.2060  0.1533
    1DPPC   C2B 3418  16.834  10.826   5.479 -0.0584 -0.0210 -0.2660
    1DPPC   C3B 3419  16.795  10.816   5.098 -0.1688 -0.0069 -0.0541
    1DPPC   C4B 3420  16.813  11.097   4.780  0.0079  0.0195  0.0183
    1DPPC   NC3 3421  11.817  21.485   6.232 -0.2274  0.1193 -0.0680
    1DPPC   PO4 3422  11.424  21.812   6.199  0.0814 -0.1001 -0.0679
    1DPPC   GL1 3423  11.453  21.561   5.849  0.0228 -0.2559  0.2151
    1DPPC   GL2 3424  11.574  21.192   5.894 -0.0193  0.1283  0.0938
    1DPPC   C1A 3425  11.727  21.468   5.434  0.1849 -0.0055  0.1155
    1DPPC   C2A 3426  11.720  21.587   4.939  0.2617 -0.0044 -0.1500
    1DPPC   C3A 3427  11.567  21.744   4.537  0.0395  0.0061  0.2969
    1DPPC   C4A 3428  11.201  21.546   4.288  0.1678 -0.0781  0.0522
    1DPPC   C1B 3429  11.521  21.024   5.481  0.0216 -0.1412  0.0575
    1DPPC   C2B 3430  11.664  21.083   5.074  0.0403  0.2027  0.1456
    1DPPC   C3B 3431  11.933  21.016   4.745  0.2164 -0.1525 -0.0831
    1DPPC   C4B 3432  12.042  20.642   4.467 -0.0809  0.0436  0.0199
    1DPPC   NC3 3433  13.535   9.952   7.915  0.1253 -0.1261 -0.0071
    1DPPC   PO4 3434  13.408   9.979   7.445  0.0321 -0.2883  0.1614
    1DPPC   GL1 3435  13.486   9.978   7.095 -0.1453  0.3117  0.1705
    1DPPC   GL2 3436  13.822  10.033   7.037  0.2265 -0.1246  0.0827
    1DPPC   C1A 3437  13.402   9.865   6.666 -0.0333 -0.5628  0.1079
    1DPPC   C2A 3438  13.172   9.751   6.251  0.1874  0.0626  0.0236
    1DPPC   C3A 3439  12.920   9.539   6.087  0.1307 -0.2383  0.2646
    1DPPC   C4A 3440  12.641   9.591   5.730  0.0577 -0.2614  0.0472
    1DPPC   C1B 3441  13.870   9.747   6.706 -0.0872  0.0317  0.0909
    1DPPC   C2B 3442  13.720   9.687   6.270  0.1649 -0.3143  0.1986
    1DPPC   C3B 3443  13.546   9.733   5.827  0.2636  0.0128  0.1884
    1DPPC   C4B 3444  13.162   9.745   5.591 -0.3271  0.0502  0.0021
    1DPPC   NC3 3445  20.542  12.863   6.707  0.0240  0.1270 -0.1581
    1DPPC   PO4 3446  20.469  12.440   6.932 -0.0617 -0.1681  0.1288
    1DPPC   GL1 3447  20.585  12.429   6.442 -0.0884 -0.2834 -0.0979
    1DPPC   GL2 3448  20.936  12.335   6.287  0.3265 -0.1044  0.0801
    1DPPC   C1A 3449  20.255  12.352   6.070 -0.0316 -0.0584  0.2622
    1DPPC   C2A 3450  20.222  12.317   5.611  0.1382  0.1759 -0.2217
    1DPPC   C3A 3451  20.407  12.218   5.316 -0.0789 -0.2047 -0.1726
    1DPPC   C4A 3452  20.501  12.124   4.878  0.0588 -0.0380 -0.0372
    1DPPC   C1B 3453  20.723  12.574   5.993  0.0562 -0.1395 -0.0548
    1DPPC   C2B 3454  20.674  12.521   5.573 -0.1006  0.0265  0.0331
    1DPPC   C3B 3455  20.770  12.725   5.137  0.4141  0.0588 -0.0239
    1DPPC   C4B 3456  21.066  12.926   4.884  0.1447 -0.0497 -0.0977
    1DPPC   NC3 3457  17.604  14.497   7.605  0.1003 -0.2686 -0.1942
    1DPPC   PO4 3458  17.403  14.243   7.146 -0.0932  0.1500  0.1245
    1DPPC   GL1 3459  17.469  14.353   6.754  0.2827  0.1927  0.1884
    1DPPC   GL2 3460  17.243  14.584   6.622 -0.3731 -0.1288  0.1648
    1DPPC   C1A 3461  17.515  14.369   6.261 -0.0176  0.4820  0.3298
    1DPPC   C2A 3462  17.590  14.384   5.896 -0.3324 -0.3442  0.0838
    1DPPC   C3A 3463  17.713  14.393   5.555 -0.1545 -0.1484  0.0457
    1DPPC   C4A 3464  17.830  14.385   5.079  0.1359  0.1363  0.0304
    1DPPC   C1B 3465  17.285  14.839   6.234 -0.1829  0.2810 -0.3324
    1DPPC   C2B 3466  17.255  14.863   5.814  0.3245 -0.0269  0.4093
    1DPPC   C3B 3467  17.394  14.706   5.497  0.0486 -0.2685  0.0607
    1DPPC   C4B 3468  17.485  14.878   5.178 -0.5661  0.0014  0.0788
    1DPPC   NC3 3469  17.487   8.944   7.496  0.1656 -0.1973  0.2779
    1DPPC   PO4 3470  17.901   8.837   7.373  0.0146 -0.0439 -0.2366
    1DPPC   GL1 3471  18.041   8.841   6.968 -0.0068  0.0577  0.0365
    1DPPC   GL2 3472  18.418   8.685   7.064  0.1127 -0.4495  0.1989
    1DPPC   C1A 3473  18.001   8.813   6.560 -0.3388 -0.1764  0.0473
    1DPPC   C2A 3474  17.953   8.759   6.116  0.0343  0.0116  0.1852
    1DPPC   C3A 3475  17.934   8.716   5.626  0.1317 -0.1075 -0.1076
    1DPPC   C4A 3476  18.059   8.718   5.157 -0.0902 -0.0664  0.3517
    1DPPC   C1B 3477  18.429   8.567   6.616  0.0458  0.4447  0.0166
    1DPPC   C2B 3478  18.474   8.458   6.201 -0.0388  0.0178  0.3373
    1DPPC   C3B 3479  18.407   8.463   5.823  0.1140  0.2550 -0.0623
    1DPPC   C4B 3480  18.260   8.351   5.444 -0.0181 -0.0894  0.0783
    1DPPC   NC3 3481  18.700  15.688   7.216 -0.0638 -0.0009 -0.1729
    1DPPC   PO4 3482  18.992  15.847   6.961  0.1122 -0.2096 -0.2581
    1DPPC   GL1 3483  18.856  15.409   6.758  0.0038 -0.0731  0.2847
    1DPPC   GL2 3484  18.486  15.268   6.611 -0.1662 -0.1275  0.0700
    1DPPC   C1A 3485  18.908  15.316   6.290  0.1089  0.0497  0.3104
    1DPPC   C2A 3486  18.659  15.306   5.909 -0.0403 -0.2003 -0.1422
    1DPPC   C3A 3487  18.525  15.346   5.450 -0.2512 -0.1101  0.1218
    1DPPC   C4A 3488  18.445  15.632   5.130 -0.2770 -0.0188  0.0141
    1DPPC   C1B 3489  18.230  15.195   6.278  0.1748  0.0295 -0.2721
    1DPPC   C2B 3490  18.088  15.316   5.877 -0.2839  0.0967 -0.1167
    1DPPC   C3B 3491  18.046  15.365   5.382  0.1438  0.2382 -0.2145
    1DPPC   C4B 3492  18.263  15.208   4.950  0.0928 -0.1444 -0.4013
    1DPPC   NC3 3493  19.417  17.325   7.560 -0.2098  0.1748  0.0273
    1DPPC   PO4 3494  19.561  17.021   7.382  0.1715  0.0475 -0.0809
    1DPPC   GL1 3495  19.736  17.289   7.036 -0.0245  0.1391  0.0787
    1DPPC   GL2 3496  19.938  17.118   6.879  0.2382  0.1901  0.0328
    1DPPC   C1A 3497  19.521  17.576   6.825  0.2791 -0.1207  0.1193
    1DPPC   C2A 3498  19.387  17.749   6.377  0.0379  0.0513 -0.1727
    1DPPC   C3A 3499  19.315  17.778   5.901 -0.2389  0.2073  0.0149
    1DPPC   C4A 3500  19.107  18.082   5.550  0.0054  0.0317 -0.2351
    1DPPC   C1B 3501  19.739  17.355   6.438 -0.1999 -0.1856  0.0489
    1DPPC   C2B 3502  19.697  17.444   5.951  0.1140 -0.1665 -0.1400
    1DPPC   C3B 3503  19.689  17.559   5.544  0.0355 -0.1426  0.1853
    1DPPC   C4B 3504  19.517  17.831   5.254  0.1912  0.3113 -0.0483
    1DPPC   NC3 3505  17.678  16.147   7.057  0.2825  0.2108  0.0066
    1DPPC   PO4 3506  17.240  16.224   7.158 -0.1219 -0.2906 -0.2741
    1DPPC   GL1 3507  17.226  16.213   6.646  0.3665 -0.0297 -0.0330
    1DPPC   GL2 3508  17.075  16.475   6.618  0.0697 -0.2172  0.0781
    1DPPC   C1A 3509  17.227  16.120   6.235 -0.0200  0.2037  0.0397
    1DPPC   C2A 3510  17.157  16.026   5.788 -0.0059 -0.1293  0.0086
    1DPPC   C3A 3511  17.249  16.143   5.372  0.0914  0.0037 -0.2859
    1DPPC   C4A 3512  17.355  16.246   4.960  0.1471  0.2900 -0.0999
    1DPPC   C1B 3513  17.352  16.576   6.230 -0.0545  0.2551 -0.1040
    1DPPC   C2B 3514  17.323  16.535   5.863 -0.3772 -0.2632 -0.1599
    1DPPC   C3B 3515  17.455  16.608   5.464  0.1942  0.0034 -0.1410
    1DPPC   C4B 3516  17.404  16.719   5.082 -0.2270 -0.0241  0.1897
    1DPPC   NC3 3517  13.158  11.325   7.559  0.0326 -0.0818  0.1444
    1DPPC   PO4 3518  13.360  10.939   7.468 -0.0361  0.0482 -0.0557
    1DPPC   GL1 3519  13.654  10.776   7.163  0.0260  0.0495 -0.1202
    1DPPC   GL2 3520  14.010  10.571   7.050  0.4506  0.0680 -0.2384
    1DPPC   C1A 3521  13.702  10.895   6.749  0.2444  0.1263  0.3690
    1DPPC   C2A 3522  13.787  10.826   6.327  0.0191  0.1240  0.3214
    1DPPC   C3A 3523  13.902  10.758   5.913 -0.1162 -0.1855 -0.0897
    1DPPC   C4A 3524  13.555  10.741   5.549  0.4061  0.3460 -0.0530
    1DPPC   C1B 3525  14.185  10.671   6.646  0.0621  0.1863  0.0293
    1DPPC   C2B 3526  14.197  10.536   6.253 -0.0100 -0.2011  0.1219
    1DPPC   C3B 3527  14.177  10.404   5.765  0.2096  0.3020  0.2648
    1DPPC   C4B 3528  14.014  10.605   5.426  0.0045 -0.0714 -0.0825
    1DPPC   NC3 3529  15.098  19.508   7.083 -0.1487 -0.1103  0.0515
    1DPPC   PO4 3530  15.178  19.980   6.900  0.0661  0.0166 -0.0948
    1DPPC   GL1 3531  15.018  20.134   6.448  0.2258 -0.0679 -0.0523
    1DPPC   GL2 3532  15.015  20.468   6.445  0.0411 -0.1367 -0.0617
    1DPPC   C1A 3533  14.983  20.050   6.032 -0.0645  0.0365  0.0254
    1DPPC   C2A 3534  14.895  20.123   5.615  0.0417  0.1894 -0.3784
    1DPPC   C3A 3535  14.909  20.397   5.200 -0.1246  0.3393  0.2253
    1DPPC   C4A 3536  15.001  20.794   4.989  0.1388 -0.1320 -0.2936
    1DPPC   C1B 3537  15.330  20.439   6.141  0.1633 -0.2273 -0.2866
    1DPPC   C2B 3538  15.791  20.473   6.189  0.0069 -0.2826  0.3424
    1DPPC   C3B 3539  16.099  20.479   5.928 -0.2480 -0.2497 -0.2240
    1DPPC   C4B 3540  16.047  20.541   5.436 -0.2501 -0.1995 -0.0728
    1DPPC   NC3 3541  12.866  10.292   7.683  0.0730  0.2485 -0.0322
    1DPPC   PO4 3542  12.872  10.805   7.551 -0.0039 -0.0590 -0.1172
    1DPPC   GL1 3543  12.927  10.869   7.157  0.0205  0.2142  0.0918
    1DPPC   GL2 3544  12.823  11.100   6.944 -0.3550  0.2659  0.0259
    1DPPC   C1A 3545  13.151  10.723   6.788 -0.4636 -0.1731 -0.0704
    1DPPC   C2A 3546  13.309  10.699   6.421  0.1053  0.1299  0.0094
    1DPPC   C3A 3547  13.265  10.551   6.011 -0.2674 -0.1621  0.2099
    1DPPC   C4A 3548  13.178  10.450   5.594  0.1977  0.0639 -0.1607
    1DPPC   C1B 3549  12.892  11.057   6.496  0.0302  0.2322  0.1998
    1DPPC   C2B 3550  12.996  10.999   6.064  0.0647  0.2477  0.1403
    1DPPC   C3B 3551  13.086  10.984   5.616  0.0579  0.0002  0.2433
    1DPPC   C4B 3552  13.147  11.075   5.174 -0.1057  0.1025  0.2959
    1DPPC   NC3 3553  16.402  10.333   7.847  0.0849  0.0736  0.0972
    1DPPC   PO4 3554  16.240  10.239   7.469  0.2291 -0.0690  0.1160
    1DPPC   GL1 3555  16.023  10.440   7.057 -0.0927 -0.0073  0.1374
    1DPPC   GL2 3556  16.201  10.661   6.925  0.0845  0.1203 -0.1767
    1DPPC   C1A 3557  15.733  10.275   6.698  0.1895  0.2358  0.0542
    1DPPC   C2A 3558  15.678  10.277   6.253  0.0441 -0.1191 -0.0256
    1DPPC   C3A 3559  15.656  10.253   5.795 -0.0776 -0.1317  0.0359
    1DPPC   C4A 3560  15.534  10.108   5.262  0.2784 -0.0404 -0.1147
    1DPPC   C1B 3561  16.003  10.688   6.547  0.2879 -0.2055  0.3306
    1DPPC   C2B 3562  15.975  10.647   6.055  0.1833  0.1456 -0.1008
    1DPPC   C3B 3563  15.995  10.560   5.610  0.0611 -0.1010  0.1480
    1DPPC   C4B 3564  15.927  10.510   5.129  0.0385  0.1489 -0.1985
    1DPPC   NC3 3565   9.633  13.394   7.144  0.0761  0.1285  0.0923
    1DPPC   PO4 3566   9.152  13.414   7.099  0.1961 -0.0692  0.0970
    1DPPC   GL1 3567   9.295  13.585   6.680 -0.1779 -0.1208 -0.1076
    1DPPC   GL2 3568   9.580  13.714   6.680  0.0986  0.0720  0.0661
    1DPPC   C1A 3569   9.468  13.433   6.295  0.0840  0.1336  0.0412
    1DPPC   C2A 3570   9.566  13.485   5.818 -0.1610 -0.1239 -0.0336
    1DPPC   C3A 3571   9.517  13.476   5.344 -0.0991 -0.1283 -0.1580
    1DPPC   C4A 3572   9.464  13.200   4.984  0.0532 -0.0984  0.0922
    1DPPC   C1B 3573   9.866  13.743   6.236 -0.0317  0.1202  0.2244
    1DPPC   C2B 3574   9.934  13.811   5.822 -0.1086  0.0214 -0.1465
    1DPPC   C3B 3575   9.954  13.730   5.426 -0.0707 -0.1361 -0.2297
    1DPPC   C4B 3576   9.912  13.628   5.050  0.0369 -0.1258 -0.2894
    1DPPC   NC3 3577  16.826  15.498   7.052 -0.1311 -0.2284 -0.2820
    1DPPC   PO4 3578  17.042  15.067   6.920  0.0033  0.3008  0.0522
    1DPPC   GL1 3579  16.702  15.036   6.570  0.3526 -0.0168 -0.1581
    1DPPC   GL2 3580  16.380  15.229   6.608  0.0167  0.0546  0.0170
    1DPPC   C1A 3581  16.689  14.994   6.156  0.2260 -0.1656 -0.0479
    1DPPC   C2A 3582  16.759  14.923   5.806 -0.0635 -0.0645  0.2241
    1DPPC   C3A 3583  16.993  15.021   5.335  0.0768  0.1833 -0.1986
    1DPPC   C4A 3584  17.023  14.745   4.969 -0.4681 -0.0739  0.0815
    1DPPC   C1B 3585  16.495  15.442   6.215  0.0959  0.0704  0.1416
    1DPPC   C2B 3586  16.573  15.380   5.842 -0.0010  0.3544  0.1177
    1DPPC   C3B 3587  16.556  15.231   5.490 -0.0206  0.3075  0.0914
    1DPPC   C4B 3588  16.603  14.965   5.073  0.3160  0.0561  0.0337
    1DPPC   NC3 3589  10.392  11.159   7.614  0.0963  0.0679  0.3821
    1DPPC   PO4 3590  10.349  11.031   7.198  0.1230 -0.1567 -0.0397
    1DPPC   GL1 3591  10.255  11.249   6.856 -0.0067 -0.0878 -0.0631
    1DPPC   GL2 3592  10.375  11.506   6.865 -0.2305 -0.2267 -0.0279
    1DPPC   C1A 3593  10.072  11.214   6.500  0.0572 -0.2353 -0.0556
    1DPPC   C2A 3594  10.001  11.123   6.089 -0.2443 -0.2257  0.1874
    1DPPC   C3A 3595   9.803  10.962   5.736 -0.0628 -0.3491 -0.0795
    1DPPC   C4A 3596   9.941  10.760   5.437  0.0024 -0.2342 -0.0016
    1DPPC   C1B 3597  10.575  11.340   6.458  0.1996 -0.3191  0.2173
    1DPPC   C2B 3598  10.531  11.057   6.245 -0.1738 -0.0729  0.0625
    1DPPC   C3B 3599  10.756  10.949   5.879  0.0080 -0.1920 -0.2153
    1DPPC   C4B 3600  10.819  10.609   5.521  0.0041  0.0522  0.0133
    1DPPC   NC3 3601  13.786  17.691   7.298  0.2448 -0.0878 -0.3959
    1DPPC   PO4 3602  14.170  17.421   7.226 -0.2113  0.0127  0.1800
    1DPPC   GL1 3603  14.261  17.326   6.774  0.1519  0.1093  0.1287
    1DPPC   GL2 3604  14.429  17.604   6.737 -0.0597  0.3488  0.0623
    1DPPC   C1A 3605  14.577  17.153   6.541 -0.0905  0.0006 -0.0426
    1DPPC   C2A 3606  14.603  17.194   6.098  0.2988  0.0274 -0.0385
    1DPPC   C3A 3607  14.613  17.325   5.663  0.2422 -0.1351  0.2309
    1DPPC   C4A 3608  14.770  17.540   5.379  0.0978  0.2790 -0.2998
    1DPPC   C1B 3609  14.489  17.617   6.380 -0.0300  0.1269  0.0582
    1DPPC   C2B 3610  14.496  17.871   6.022  0.0627 -0.2558 -0.1812
    1DPPC   C3B 3611  14.546  17.883   5.620 -0.1775  0.0599  0.0712
    1DPPC   C4B 3612  14.700  18.039   5.262  0.0482  0.1815  0.1508
    1DPPC   NC3 3613  22.911  17.374   6.834 -0.0405 -0.0614  0.3434
    1DPPC   PO4 3614  22.927  16.866   6.625 -0.3993  0.4066 -0.2783
    1DPPC   GL1 3615  22.927  17.142   6.200 -0.1025 -0.1303 -0.1625
    1DPPC   GL2 3616  22.730  16.890   6.026  0.3232 -0.0697  0.1719
    1DPPC   C1A 3617  23.093  17.251   5.841  0.1287  0.0622  0.0224
    1DPPC   C2A 3618  22.925  17.111   5.467  0.3475  0.0342  0.0476
    1DPPC   C3A 3619  22.809  17.264   5.060  0.2096  0.3089  0.2076
    1DPPC   C4A 3620  22.503  17.104   4.824 -0.0246 -0.0504 -0.0437
    1DPPC   C1B 3621  22.835  16.584   5.637 -0.2825 -0.2612  0.1363
    1DPPC   C2B 3622  22.781  16.647   5.243 -0.0728  0.3735 -0.0267
    1DPPC   C3B 3623  22.778  16.508   4.813 -0.1877  0.0726 -0.0708
    1DPPC   C4B 3624  22.923  16.507   4.329 -0.1453 -0.0012 -0.4414
    1DPPC   NC3 3625  14.428  18.259   7.585  0.0437  0.1237 -0.1616
    1DPPC   PO4 3626  14.118  18.429   7.290  0.1532 -0.0774 -0.1948
    1DPPC   GL1 3627  14.324  18.334   6.925 -0.0376 -0.0455 -0.2890
    1DPPC   GL2 3628  14.417  18.133   6.703  0.3138 -0.0086 -0.2216
    1DPPC   C1A 3629  14.366  18.656   6.466 -0.0158 -0.4506  0.3408
    1DPPC   C2A 3630  14.382  18.842   6.051 -0.0705 -0.2042  0.3832
    1DPPC   C3A 3631  14.393  18.971   5.579  0.0752 -0.0584 -0.1541
    1DPPC   C4A 3632  14.509  19.097   5.185 -0.1140  0.1383 -0.3060
    1DPPC   C1B 3633  14.103  18.053   6.336  0.2799  0.0475  0.2637
    1DPPC   C2B 3634  14.101  18.134   5.868  0.2098 -0.1860 -0.0268
    1DPPC   C3B 3635  14.091  18.158   5.466  0.0877 -0.1641 -0.0545
    1DPPC   C4B 3636  14.258  17.892   5.130  0.0046  0.1079 -0.1122
    1DPPC   NC3 3637  14.275   6.186   7.793  0.0988 -0.3453  0.2700
    1DPPC   PO4 3638  14.355   6.680   7.797 -0.4149 -0.2479 -0.0550
    1DPPC   GL1 3639  14.377   6.805   7.280  0.3845  0.1171  0.1268
    1DPPC   GL2 3640  14.640   6.603   7.189  0.1202 -0.2139  0.0434
    1DPPC   C1A 3641  14.180   6.605   6.889 -0.0380  0.0728 -0.0683
    1DPPC   C2A 3642  13.884   6.464   6.608  0.2017  0.1215 -0.0412
    1DPPC   C3A 3643  13.754   6.178   6.236 -0.1347 -0.2075 -0.0059
    1DPPC   C4A 3644  13.723   5.772   6.240 -0.0165 -0.2957 -0.0843
    1DPPC   C1B 3645  15.095   6.655   7.063  0.0514  0.3469  0.0435
    1DPPC   C2B 3646  15.400   6.919   6.838 -0.2369 -0.0197 -0.0348
    1DPPC   C3B 3647  15.484   7.032   6.491 -0.2282  0.0983 -0.2423
    1DPPC   C4B 3648  15.463   6.856   6.054  0.0086 -0.1746  0.0803
    1DIPC   NC3 3649   6.499  15.162   6.515  0.0795  0.3505  0.0098
    1DIPC   PO4 3650   6.255  15.284   6.291  0.3268 -0.2013  0.1282
    1DIPC   GL1 3651   6.056  15.524   5.878  0.4133  0.2148  0.0726
    1DIPC   GL2 3652   5.740  15.702   5.924  0.2696 -0.0907 -0.0458
    1DIPC   C1A 3653   5.989  15.430   5.438 -0.1753  0.3146  0.0453
    1DIPC   D2A 3654   5.890  15.378   5.001 -0.2566 -0.1621  0.0630
    1DIPC   D3A 3655   5.840  15.785   4.921  0.2732  0.0978 -0.2087
    1DIPC   C4A 3656   5.834  15.898   4.563 -0.4950  0.1131  0.0254
    1DIPC   C1B 3657   5.565  15.399   5.766 -0.1145 -0.1912  0.2202
    1DIPC   D2B 3658   5.241  15.091   5.591  0.0348  0.0486  0.1824
    1DIPC   D3B 3659   5.044  15.108   5.168 -0.0464  0.3433  0.2666
    1DIPC   C4B 3660   4.885  14.747   4.856  0.3686 -0.2529  0.0758
    1DIPC   NC3 3661   5.271  13.750   6.394 -0.1268 -0.3836  0.1472
    1DIPC   PO4 3662   5.232  13.294   6.153 -0.0043 -0.0769  0.2231
    1DIPC   GL1 3663   5.174  13.243   5.713 -0.0663  0.4780  0.0503
    1DIPC   GL2 3664   5.582  13.177   5.812 -0.0503  0.0115 -0.2195
    1DIPC   C1A 3665   4.889  13.169   5.292 -0.2126 -0.1244  0.3367
    1DIPC   D2A 3666   4.481  12.967   5.384 -0.1170 -0.1675 -0.0905
    1DIPC   D3A 3667   4.704  12.730   5.056 -0.0673  0.2119 -0.0341
    1DIPC   C4A 3668   4.720  12.873   4.514  0.0931 -0.0954 -0.2925
    1DIPC   C1B 3669   5.941  13.247   5.678 -0.0373  0.0101  0.5258
    1DIPC   D2B 3670   6.275  13.342   5.421  0.1378 -0.2587  0.2220
    1DIPC   D3B 3671   5.968  13.217   5.076  0.1337 -0.0505  0.2267
    1DIPC   C4B 3672   5.572  13.037   5.173  0.1980 -0.1776  0.0231
    1DIPC   NC3 3673   9.097  23.489   5.705  0.0994 -0.2793  0.2521
    1DIPC   PO4 3674   9.630  23.424   5.660  0.0579  0.3496 -0.1294
    1DIPC   GL1 3675   9.635  23.565   5.335  0.0843 -0.2426 -0.3711
    1DIPC   GL2 3676   9.229  23.579   5.215  0.1660  0.2492  0.4765
    1DIPC   C1A 3677   9.901  23.779   4.962  0.1298 -0.3507  0.0122
    1DIPC   D2A 3678  10.251  23.802   4.704 -0.1309 -0.1230  0.0094
    1DIPC   D3A 3679  10.427  23.396   4.675  0.1125 -0.1236  0.0666
    1DIPC   C4A 3680  10.323  22.948   4.862  0.2868 -0.0512 -0.1470
    1DIPC   C1B 3681   9.477  23.513   4.821 -0.3783  0.2501 -0.1200
    1DIPC   D2B 3682   9.619  23.602   4.394 -0.1157 -0.0806 -0.1574
    1DIPC   D3B 3683   9.369  23.899   4.385  0.1518 -0.1798  0.0534
    1DIPC   C4B 3684   9.411  24.343   4.370  0.0864  0.0294  0.1417
    1DIPC   NC3 3685  10.141   6.923   7.126 -0.1992  0.2485  0.0034
    1DIPC   PO4 3686  10.115   6.600   7.015 -0.1322  0.1625 -0.1042
    1DIPC   GL1 3687  10.039   6.785   6.602 -0.0796  0.1092 -0.1878
    1DIPC   GL2 3688  10.399   6.827   6.503  0.2608 -0.3585 -0.0933
    1DIPC   C1A 3689   9.943   6.625   6.257 -0.1594 -0.1340 -0.2226
    1DIPC   D2A 3690  10.116   6.261   6.029 -0.0399 -0.0341  0.1706
    1DIPC   D3A 3691  10.156   6.616   5.770  0.0548 -0.1529 -0.0563
    1DIPC   C4A 3692  10.465   6.851   5.473  0.1023 -0.2546 -0.1015
    1DIPC   C1B 3693  10.443   6.604   6.256  0.1907 -0.1353 -0.1627
    1DIPC   D2B 3694  10.543   6.140   6.164 -0.1441 -0.0090 -0.0360
    1DIPC   D3B 3695  10.525   6.209   5.756  0.1420  0.2400  0.0382
    1DIPC   C4B 3696  10.626   5.862   5.465  0.3146 -0.0270  0.1596
    1DIPC   NC3 3697   2.049  14.685   6.211 -0.2722  0.0416  0.1759
    1DIPC   PO4 3698   2.282  14.593   5.967 -0.0049  0.0881 -0.0958
    1DIPC   GL1 3699   1.959  14.748   5.645 -0.2751  0.0479 -0.1598
    1DIPC   GL2 3700   1.670  14.726   5.772 -0.2688 -0.1380  0.1878
    1DIPC   C1A 3701   2.084  14.754   5.233  0.0648 -0.0664  0.0410
    1DIPC   D2A 3702   2.375  14.954   4.852 -0.1326 -0.0508  0.1490
    1DIPC   D3A 3703   2.547  14.535   4.788 -0.1460 -0.0732 -0.4191
    1DIPC   C4A 3704   2.697  14.624   4.488  0.0697 -0.1274  0.0578
    1DIPC   C1B 3705   1.591  14.800   5.336  0.1971 -0.3219 -0.1417
    1DIPC   D2B 3706   1.630  15.140   4.954  0.0501  0.3103 -0.2020
    1DIPC   D3B 3707   1.848  15.007   4.683  0.0500 -0.2091  0.0073
    1DIPC   C4B 3708   2.069  14.598   4.671 -0.0597  0.2180 -0.2617
    1DIPC   NC3 3709  28.855  21.106   6.236  0.1834 -0.1999  0.1668
    1DIPC   PO4 3710  28.842  20.682   6.213 -0.0393  0.0330 -0.0813
    1DIPC   GL1 3711  28.760  20.686   5.794  0.0058  0.0290 -0.0836
    1DIPC   GL2 3712  28.908  20.977   5.657 -0.0771  0.0708 -0.1383
    1DIPC   C1A 3713  28.850  20.478   5.410 -0.1603 -0.1228  0.1075
    1DIPC   D2A 3714  29.214  20.350   5.383 -0.1267  0.5585  0.1600
    1DIPC   D3A 3715  29.270  20.669   5.594 -0.4132  0.0781 -0.3043
    1DIPC   C4A 3716  29.580  21.012   5.500  0.0456  0.1171  0.2741
    1DIPC   C1B 3717  28.704  20.977   5.321  0.0530  0.3721 -0.1989
    1DIPC   D2B 3718  28.675  20.595   4.962 -0.2944  0.0508 -0.2293
    1DIPC   D3B 3719  29.171  20.404   4.884  0.0597 -0.1792  0.1457
    1DIPC   C4B 3720  29.353  20.110   4.625 -0.1449 -0.0280 -0.0377
    1DIPC   NC3 3721  29.101  21.953   6.237 -0.1183  0.0547  0.0091
    1DIPC   PO4 3722  28.776  22.106   6.225 -0.1238  0.1991  0.0127
    1DIPC   GL1 3723  28.771  22.073   5.812  0.2048  0.0206 -0.3733
    1DIPC   GL2 3724  28.989  22.090   5.720 -0.1346 -0.0772  0.1774
    1DIPC   C1A 3725  28.691  22.333   5.329  0.0176  0.0617  0.0099
    1DIPC   D2A 3726  28.677  22.423   4.846  0.0076 -0.0657  0.0461
    1DIPC   D3A 3727  28.978  22.753   4.887  0.3164  0.2556 -0.1455
    1DIPC   C4A 3728  29.410  22.769   4.718  0.1611  0.4743  0.1254
    1DIPC   C1B 3729  28.768  21.851   5.398  0.1402 -0.1685 -0.1899
    1DIPC   D2B 3730  28.932  21.925   5.005 -0.2187 -0.0532 -0.5285
    1DIPC   D3B 3731  28.903  21.455   5.147  0.3048  0.2960  0.0499
    1DIPC   C4B 3732  28.672  21.225   4.844  0.0004 -0.0531  0.3949
    1DIPC   NC3 3733  28.124  25.756   7.019  0.1223  0.0543  0.1977
    1DIPC   PO4 3734  27.929  25.470   6.819 -0.1137  0.2775  0.0077
    1DIPC   GL1 3735  27.821  25.393   6.445  0.0970 -0.2706  0.2632
    1DIPC   GL2 3736  27.784  25.733   6.208  0.0399  0.0531  0.1914
    1DIPC   C1A 3737  27.671  25.291   5.951  0.1439 -0.0631  0.2097
    1DIPC   D2A 3738  27.304  25.144   5.626 -0.2102  0.1902 -0.1331
    1DIPC   D3A 3739  27.052  25.426   5.368 -0.3191 -0.0085 -0.1071
    1DIPC   C4A 3740  27.379  25.709   5.205 -0.1125  0.0508  0.0728
    1DIPC   C1B 3741  27.834  25.745   5.856  0.0636  0.2536 -0.0524
    1DIPC   D2B 3742  27.760  25.950   5.535  0.1699 -0.2631 -0.3193
    1DIPC   D3B 3743  27.351  26.106   5.438  0.1277 -0.1702  0.1362
    1DIPC   C4B 3744  27.138  26.408   5.658 -0.2797 -0.0200 -0.0723
    1DIPC   NC3 3745  29.037   5.114   5.970 -0.0368 -0.1387 -0.0215
    1DIPC   PO4 3746  28.557   4.969   5.965  0.0226 -0.1079 -0.0426
    1DIPC   GL1 3747  28.631   5.092   5.580 -0.4145  0.0797  0.1613
    1DIPC   GL2 3748  29.023   5.231   5.454 -0.1221 -0.1239 -0.2454
    1DIPC   C1A 3749  28.678   4.928   5.139 -0.3854  0.2513 -0.2355
    1DIPC   D2A 3750  28.903   5.052   4.830 -0.2023 -0.3471  0.3362
    1DIPC   D3A 3751  29.020   5.461   5.003 -0.1066 -0.0285  0.0393
    1DIPC   C4A 3752  29.287   5.709   4.657 -0.1048  0.1593  0.2886
    1DIPC   C1B 3753  29.357   5.013   5.154 -0.1130 -0.2353  0.0553
    1DIPC   D2B 3754  29.526   4.577   5.005  0.0966 -0.1277  0.3657
    1DIPC   D3B 3755  29.474   4.673   4.504 -0.3143 -0.0755 -0.0157
    1DIPC   C4B 3756  29.428   4.857   4.046  0.3621 -0.1134 -0.2771
    1DIPC   NC3 3757  20.699   7.927   6.955 -0.1306 -0.1877  0.1701
    1DIPC   PO4 3758  20.890   8.329   6.942 -0.1449 -0.2210  0.0326
    1DIPC   GL1 3759  21.025   8.405   6.451  0.0153 -0.3503  0.0893
    1DIPC   GL2 3760  21.049   8.768   6.282 -0.2340  0.0912  0.0307
    1DIPC   C1A 3761  20.870   8.381   6.122  0.0906  0.2973  0.2481
    1DIPC   D2A 3762  20.879   8.478   5.839 -0.1655 -0.1890 -0.2506
    1DIPC   D3A 3763  21.048   8.661   5.452 -0.0025 -0.0246  0.1033
    1DIPC   C4A 3764  20.909   8.638   4.966  0.1149 -0.2171  0.1500
    1DIPC   C1B 3765  21.114   8.952   5.887  0.2758 -0.3983 -0.2990
    1DIPC   D2B 3766  21.325   9.109   5.524 -0.3084 -0.1582  0.0258
    1DIPC   D3B 3767  21.146   9.017   5.103 -0.0677  0.0126 -0.0421
    1DIPC   C4B 3768  21.031   9.304   4.750 -0.2995  0.1255 -0.0821
    1DIPC   NC3 3769  11.346  26.197   7.090  0.0187  0.0871 -0.3296
    1DIPC   PO4 3770  11.088  26.050   6.782  0.1267 -0.1469 -0.1356
    1DIPC   GL1 3771  11.017  25.727   6.442  0.3129  0.0677  0.1853
    1DIPC   GL2 3772  10.753  25.428   6.349 -0.1528  0.0248 -0.1187
    1DIPC   C1A 3773  10.934  25.748   5.945 -0.0926  0.0349 -0.1282
    1DIPC   D2A 3774  10.813  25.941   5.641 -0.3682  0.1957  0.1425
    1DIPC   D3A 3775  11.243  25.870   5.580  0.0893  0.1239 -0.0146
    1DIPC   C4A 3776  11.530  25.920   5.203  0.2589  0.0023 -0.2190
    1DIPC   C1B 3777  10.595  25.340   5.883 -0.0791 -0.3384 -0.3208
    1DIPC   D2B 3778  10.532  25.109   5.565  0.0445 -0.1352  0.0279
    1DIPC   D3B 3779  10.785  25.473   5.432 -0.3825  0.1040 -0.2473
    1DIPC   C4B 3780  10.920  25.781   5.077 -0.1201  0.0622 -0.0623
    1DIPC   NC3 3781   8.720   0.023   7.404 -0.0424  0.1308  0.0032
    1DIPC   PO4 3782   9.076   0.197   7.600  0.0748  0.3517 -0.2972
    1DIPC   GL1 3783   9.058   0.285   7.135  0.0445  0.2131 -0.2529
    1DIPC   GL2 3784   8.912   0.041   6.927  0.1355 -0.1379 -0.1539
    1DIPC   C1A 3785   9.269   0.393   6.828 -0.1055 -0.1640 -0.3428
    1DIPC   D2A 3786   9.238   0.875   6.770 -0.0582  0.2032  0.0221
    1DIPC   D3A 3787   8.826   0.792   6.847  0.1475 -0.1005  0.0503
    1DIPC   C4A 3788   8.840   0.399   6.572 -0.2258  0.2155 -0.1211
    1DIPC   C1B 3789   9.145  -0.094   6.606  0.4779 -0.2402 -0.0416
    1DIPC   D2B 3790   9.507   0.049   6.485 -0.0785  0.1821  0.0323
    1DIPC   D3B 3791   9.691   0.026   6.200 -0.1806 -0.1660 -0.1613
    1DIPC   C4B 3792   9.546   0.261   5.871 -0.0717  0.0742 -0.1443
    1DIPC   NC3 3793  27.793  28.644   7.212 -0.2018  0.2820 -0.2666
    1DIPC   PO4 3794  27.935  29.043   7.209 -0.4005  0.0588 -0.2099
    1DIPC   GL1 3795  28.017  28.948   6.773 -0.1500 -0.0788 -0.1524
    1DIPC   GL2 3796  27.694  28.827   6.704  0.1087  0.1444  0.0086
    1DIPC   C1A 3797  27.904  28.973   6.316  0.3265 -0.5885  0.0621
    1DIPC   D2A 3798  27.581  29.111   5.963  0.0126 -0.2118  0.2051
    1DIPC   D3A 3799  27.986  29.119   5.735 -0.0600  0.0257  0.0788
    1DIPC   C4A 3800  28.190  28.702   5.599  0.2216 -0.3786 -0.1323
    1DIPC   C1B 3801  27.448  28.796   6.331  0.2931 -0.2289 -0.0447
    1DIPC   D2B 3802  27.203  28.657   5.909  0.0930 -0.2771 -0.1290
    1DIPC   D3B 3803  27.037  29.025   6.061 -0.4593  0.1180 -0.0874
    1DIPC   C4B 3804  26.802  29.344   5.910  0.2524 -0.1420  0.1225
    1DIPC   NC3 3805  23.081  28.165   6.672 -0.4142 -0.0210 -0.0185
    1DIPC   PO4 3806  23.335  28.473   6.455 -0.1221 -0.2989  0.1241
    1DIPC   GL1 3807  23.350  28.665   6.085 -0.1513 -0.0620  0.1523
    1DIPC   GL2 3808  23.670  28.767   6.039 -0.1559  0.1640 -0.0947
    1DIPC   C1A 3809  23.479  28.544   5.656 -0.0973 -0.0383  0.0208
    1DIPC   D2A 3810  23.666  28.169   5.360 -0.2025 -0.3233 -0.1957
    1DIPC   D3A 3811  23.225  27.986   5.133 -0.0313 -0.1392 -0.2447
    1DIPC   C4A 3812  22.821  28.069   5.169 -0.1733 -0.3280 -0.1214
    1DIPC   C1B 3813  23.689  29.037   5.705 -0.2920 -0.0962 -0.2259
    1DIPC   D2B 3814  24.068  29.243   5.448 -0.1421 -0.0462  0.0181
    1DIPC   D3B 3815  23.972  29.077   5.148 -0.2489 -0.1689 -0.2435
    1DIPC   C4B 3816  24.235  28.737   4.941  0.2397 -0.0289  0.0800
    1DIPC   NC3 3817  26.561  28.877   6.958  0.2969 -0.0600  0.2992
    1DIPC   PO4 3818  26.311  29.125   6.714  0.1545 -0.4004  0.5153
    1DIPC   GL1 3819  26.366  29.201   6.254 -0.1778 -0.0857  0.0062
    1DIPC   GL2 3820  26.355  29.018   5.970  0.2410  0.1467  0.1056
    1DIPC   C1A 3821  26.380  29.574   5.860  0.0084 -0.0531 -0.1196
    1DIPC   D2A 3822  26.388  29.730   5.382 -0.2068 -0.1153 -0.2579
    1DIPC   D3A 3823  26.126  29.796   5.000 -0.0020  0.1085  0.0208
    1DIPC   C4A 3824  25.761  30.012   5.087 -0.0343  0.0828 -0.0196
    1DIPC   C1B 3825  26.705  28.781   5.675 -0.2284 -0.1155 -0.1424
    1DIPC   D2B 3826  27.131  29.074   5.544  0.0130 -0.1719  0.0428
    1DIPC   D3B 3827  27.019  29.212   5.115  0.1616 -0.0320 -0.3007
    1DIPC   C4B 3828  26.621  28.881   4.960  0.2356 -0.3028 -0.4662
    1DIPC   NC3 3829   8.521  21.638   6.438 -0.1813  0.0324 -0.1271
    1DIPC   PO4 3830   8.500  21.967   6.097  0.2399 -0.1252  0.0232
    1DIPC   GL1 3831   8.658  21.889   5.710  0.0472 -0.1033 -0.2276
    1DIPC   GL2 3832   8.542  22.040   5.474  0.0350 -0.0074  0.0547
    1DIPC   C1A 3833   8.955  21.652   5.591 -0.1328 -0.0187 -0.1663
    1DIPC   D2A 3834   9.048  21.357   5.373 -0.1802  0.1979 -0.0746
    1DIPC   D3A 3835   8.818  21.182   5.751 -0.2381 -0.2461 -0.1449
    1DIPC   C4A 3836   8.572  20.872   5.660  0.1530 -0.0299 -0.0444
    1DIPC   C1B 3837   8.673  21.824   5.084 -0.0019  0.1833  0.0283
    1DIPC   D2B 3838   8.775  21.479   4.900 -0.0531 -0.0185 -0.0277
    1DIPC   D3B 3839   8.726  21.597   4.500  0.1810  0.1839 -0.1279
    1DIPC   C4B 3840   8.412  21.429   4.136 -0.0020 -0.1981  0.1322
    1DIPC   NC3 3841   5.559   2.476   6.521  0.1140 -0.2764 -0.2625
    1DIPC   PO4 3842   5.536   1.950   6.626  0.0896 -0.0955 -0.0470
    1DIPC   GL1 3843   5.714   2.113   6.246  0.0871 -0.1503 -0.0056
    1DIPC   GL2 3844   5.975   2.077   6.065 -0.1963 -0.1257  0.0251
    1DIPC   C1A 3845   5.653   2.390   5.838  0.0941 -0.1365  0.1771
    1DIPC   D2A 3846   5.683   2.370   5.398 -0.0439 -0.1003 -0.1791
    1DIPC   D3A 3847   5.615   2.378   4.939 -0.4459  0.2609 -0.0647
    1DIPC   C4A 3848   5.695   2.528   4.519  0.0266 -0.1979 -0.0016
    1DIPC   C1B 3849   6.181   1.674   5.867 -0.1895 -0.0354  0.1819
    1DIPC   D2B 3850   6.422   1.361   5.734 -0.1494 -0.2135  0.1413
    1DIPC   D3B 3851   6.700   1.691   5.410  0.2735 -0.0610 -0.2266
    1DIPC   C4B 3852   7.089   1.646   5.548  0.0405 -0.1909  0.1949
    1DIPC   NC3 3853   4.812  14.688   6.521  0.3249  0.0101  0.0287
    1DIPC   PO4 3854   5.204  14.636   6.308  0.2315  0.1893  0.1025
    1DIPC   GL1 3855   5.249  14.590   5.879 -0.1508  0.1012  0.1670
    1DIPC   GL2 3856   5.547  14.849   5.800  0.3386  0.0590 -0.0386
    1DIPC   C1A 3857   5.323  14.544   5.528  0.0211 -0.0738  0.1949
    1DIPC   D2A 3858   5.262  14.534   5.081 -0.2371 -0.1654 -0.1490
    1DIPC   D3A 3859   4.955  14.341   5.148  0.0611 -0.1704  0.0225
    1DIPC   C4A 3860   5.008  14.051   4.851  0.1986 -0.0659 -0.0528
    1DIPC   C1B 3861   5.672  14.948   5.371  0.0140  0.0974  0.1623
    1DIPC   D2B 3862   5.521  14.989   5.006 -0.2623  0.2552  0.0538
    1DIPC   D3B 3863   5.948  14.856   4.914  0.2521 -0.0946  0.2275
    1DIPC   C4B 3864   6.000  14.666   4.431  0.0634  0.0163  0.2359
    1DIPC   NC3 3865  22.769   5.603   7.085  0.1734 -0.0281  0.1549
    1DIPC   PO4 3866  22.780   5.928   6.779  0.1434 -0.2064  0.1853
    1DIPC   GL1 3867  22.620   6.176   6.439  0.0995 -0.0642 -0.1105
    1DIPC   GL2 3868  22.918   6.202   6.223  0.0084  0.0313  0.2367
    1DIPC   C1A 3869  22.269   6.154   6.143 -0.0584  0.1475  0.0914
    1DIPC   D2A 3870  21.854   5.986   6.203  0.1538 -0.1450  0.1973
    1DIPC   D3A 3871  21.427   5.795   6.260 -0.2884  0.1099  0.0670
    1DIPC   C4A 3872  21.303   5.346   6.132  0.3288 -0.2534 -0.2438
    1DIPC   C1B 3873  22.932   6.552   5.865 -0.2643  0.0358  0.0575
    1DIPC   D2B 3874  22.802   6.993   5.710  0.2024  0.2230  0.1337
    1DIPC   D3B 3875  23.237   6.915   5.663 -0.3707  0.1778 -0.1666
    1DIPC   C4B 3876  23.388   6.615   6.024  0.4111 -0.1119 -0.3184
    1DIPC   NC3 3877  26.412   5.585   5.987  0.3097  0.2230  0.1367
    1DIPC   PO4 3878  26.813   5.774   5.919  0.2479 -0.2588  0.0620
    1DIPC   GL1 3879  26.729   5.835   5.484 -0.0472 -0.2067 -0.1451
    1DIPC   GL2 3880  26.886   5.926   5.267  0.2015  0.0315 -0.0887
    1DIPC   C1A 3881  26.513   5.734   5.054 -0.1541 -0.0282  0.1230
    1DIPC   D2A 3882  26.429   5.428   4.776  0.3224 -0.1931 -0.1088
    1DIPC   D3A 3883  26.156   5.636   4.630 -0.1884  0.1572  0.0323
    1DIPC   C4A 3884  26.168   5.994   4.290 -0.0224 -0.0674  0.1709
    1DIPC   C1B 3885  26.841   6.098   4.824  0.3104  0.2539 -0.1105
    1DIPC   D2B 3886  26.767   6.543   4.796 -0.0755 -0.2315  0.0415
    1DIPC   D3B 3887  26.791   6.447   5.243  0.3066  0.0721  0.0251
    1DIPC   C4B 3888  26.404   6.224   5.342 -0.2577  0.1021  0.2183
    1DIPC   NC3 3889   9.317  21.676   6.234  0.2834 -0.3056  0.0181
    1DIPC   PO4 3890   9.110  21.240   6.252 -0.0194  0.0189  0.0310
    1DIPC   GL1 3891   9.307  21.274   5.854 -0.2061  0.0606 -0.0839
    1DIPC   GL2 3892   9.544  21.509   5.786  0.1766 -0.1754  0.1462
    1DIPC   C1A 3893   9.325  20.932   5.494 -0.3550 -0.3514  0.2671
    1DIPC   D2A 3894   9.646  20.821   5.246  0.1582 -0.1495  0.0736
    1DIPC   D3A 3895   9.423  20.920   4.903  0.1416 -0.0386  0.3917
    1DIPC   C4A 3896   9.048  21.009   4.938 -0.0635 -0.1142 -0.3201
    1DIPC   C1B 3897   9.749  21.218   5.492  0.2258  0.0545 -0.1172
    1DIPC   D2B 3898  10.127  20.904   5.414  0.1508  0.2252  0.0193
    1DIPC   D3B 3899  10.152  20.687   5.010  0.1455  0.0123 -0.0087
    1DIPC   C4B 3900  10.322  20.433   4.895  0.1355 -0.3822 -0.0137
    1DIPC   NC3 3901   8.066   0.151   7.198 -0.1773 -0.0957 -0.0482
    1DIPC   PO4 3902   7.937  -0.119   6.830 -0.1277  0.0627  0.0960
    1DIPC   GL1 3903   7.559  -0.096   6.589 -0.0856 -0.0742  0.2094
    1DIPC   GL2 3904   7.237   0.130   6.669 -0.2427 -0.2837 -0.0291
    1DIPC   C1A 3905   7.453  -0.199   6.168  0.0956 -0.0623  0.0479
    1DIPC   D2A 3906   7.380  -0.332   5.765 -0.2509 -0.3410  0.1006
    1DIPC   D3A 3907   6.949  -0.483   5.901  0.0734 -0.0985 -0.1791
    1DIPC   C4A 3908   6.741  -0.366   5.532  0.5908 -0.3950  0.0016
    1DIPC   C1B 3909   7.152   0.426   6.332  0.4641  0.0281 -0.1271
    1DIPC   D2B 3910   7.121   0.505   5.869 -0.3037 -0.2846 -0.0861
    1DIPC   D3B 3911   7.275   0.435   5.458 -0.1047 -0.1974  0.0703
    1DIPC   C4B 3912   7.430   0.052   5.368 -0.2123 -0.2453 -0.2173
    1DIPC   NC3 3913  11.210   0.134   7.986 -0.2925  0.3640 -0.1227
    1DIPC   PO4 3914  11.090  -0.256   7.789 -0.0880  0.0187 -0.3082
    1DIPC   GL1 3915  11.131  -0.340   7.338  0.0789 -0.1750 -0.2680
    1DIPC   GL2 3916  10.848  -0.135   7.217  0.0972 -0.0187 -0.0034
    1DIPC   C1A 3917  11.338  -0.347   6.927  0.0641  0.0443  0.2906
    1DIPC   D2A 3918  11.285  -0.704   6.696  0.0492  0.1272  0.1037
    1DIPC   D3A 3919  11.689  -0.732   6.836  0.1543  0.1380 -0.0116
    1DIPC   C4A 3920  11.867  -1.123   7.055 -0.2678 -0.1924 -0.0201
    1DIPC   C1B 3921  10.999  -0.022   6.868 -0.1542 -0.1295  0.0998
    1DIPC   D2B 3922  11.322  -0.030   6.505 -0.3015 -0.2976 -0.1656
    1DIPC   D3B 3923  11.147  -0.123   6.160 -0.0103 -0.1525 -0.0951
    1DIPC   C4B 3924  10.744  -0.350   5.987 -0.0505 -0.3009 -0.0835
    1DIPC   NC3 3925  27.239   3.351   6.354  0.3244 -0.1353 -0.1240
    1DIPC   PO4 3926  27.085   3.414   5.975 -0.1917  0.0637 -0.1799
    1DIPC   GL1 3927  26.908   3.561   5.559  0.2087  0.0085  0.1317
    1DIPC   GL2 3928  26.704   3.742   5.503 -0.1282 -0.4467  0.0769
    1DIPC   C1A 3929  26.847   3.514   5.066 -0.2134  0.0839  0.2106
    1DIPC   D2A 3930  26.757   3.153   4.777 -0.3913 -0.1312 -0.4842
    1DIPC   D3A 3931  26.406   2.980   5.104  0.1686 -0.2868 -0.2324
    1DIPC   C4A 3932  26.583   2.628   5.480  0.1607 -0.2214  0.0596
    1DIPC   C1B 3933  26.598   4.103   5.366  0.1568 -0.2094 -0.1072
    1DIPC   D2B 3934  26.680   4.500   5.212 -0.1167  0.3925  0.2107
    1DIPC   D3B 3935  26.876   4.788   4.963 -0.0624 -0.0756 -0.0683
    1DIPC   C4B 3936  26.913   5.094   4.920 -0.0161 -0.1103  0.1780
    1DIPC   NC3 3937  18.519  24.429   6.606 -0.3417  0.1943 -0.0129
    1DIPC   PO4 3938  18.656  23.934   6.418  0.2011  0.2541 -0.0006
    1DIPC   GL1 3939  18.804  23.858   5.952  0.0730  0.0382 -0.1536
    1DIPC   GL2 3940  18.585  24.050   5.706 -0.0729  0.1183  0.0868
    1DIPC   C1A 3941  18.972  23.678   5.604  0.0011  0.0159  0.0696
    1DIPC   D2A 3942  19.035  23.735   5.166 -0.0217  0.0976  0.1347
    1DIPC   D3A 3943  19.398  23.512   5.280 -0.0067 -0.0951 -0.3309
    1DIPC   C4A 3944  19.461  23.500   5.690 -0.1248  0.2844 -0.1733
    1DIPC   C1B 3945  18.361  23.625   5.653  0.2549  0.0135  0.1908
    1DIPC   D2B 3946  18.230  23.247   5.991 -0.1846  0.1070  0.0384
    1DIPC   D3B 3947  18.454  22.918   5.749 -0.1504 -0.2240 -0.0232
    1DIPC   C4B 3948  18.350  22.835   5.344 -0.1433 -0.0010 -0.5917
    1DIPC   NC3 3949  23.905   8.763   6.385  0.1219 -0.3392 -0.1805
    1DIPC   PO4 3950  23.636   8.508   6.393  0.2557  0.0395  0.2726
    1DIPC   GL1 3951  23.631   8.487   6.061  0.0083 -0.0806 -0.0677
    1DIPC   GL2 3952  23.934   8.355   5.848 -0.1403  0.2010 -0.0454
    1DIPC   C1A 3953  23.596   8.600   5.565 -0.0868 -0.0111 -0.1899
    1DIPC   D2A 3954  23.959   8.615   5.270  0.0247 -0.1522 -0.1893
    1DIPC   D3A 3955  23.753   8.601   4.939  0.1321 -0.3392  0.2783
    1DIPC   C4A 3956  23.303   8.510   5.000  0.2180 -0.1915  0.1777
    1DIPC   C1B 3957  23.915   8.131   5.486  0.0389 -0.0793 -0.2922
    1DIPC   D2B 3958  23.673   8.145   5.016  0.0032  0.0990  0.1121
    1DIPC   D3B 3959  23.429   7.937   5.242 -0.0433  0.1577 -0.0093
    1DIPC   C4B 3960  23.083   7.768   5.387 -0.1547 -0.0431 -0.0156
    1DIPC   NC3 3961  26.910   8.162   6.009 -0.0651 -0.0836  0.1258
    1DIPC   PO4 3962  27.225   7.745   6.123  0.2513  0.0584  0.5158
    1DIPC   GL1 3963  27.106   7.672   5.651 -0.0172 -0.0263 -0.3511
    1DIPC   GL2 3964  27.057   7.923   5.348  0.1400  0.0298  0.3458
    1DIPC   C1A 3965  27.172   7.295   5.398  0.1812  0.2358 -0.1034
    1DIPC   D2A 3966  27.200   6.983   5.176 -0.0891 -0.0482  0.0827
    1DIPC   D3A 3967  26.701   6.975   5.176  0.0583 -0.1127 -0.2803
    1DIPC   C4A 3968  26.322   7.323   4.910  0.0773  0.3449 -0.0030
    1DIPC   C1B 3969  27.335   8.283   5.265  0.1977 -0.1014 -0.1500
    1DIPC   D2B 3970  27.731   8.261   5.108 -0.3786 -0.0514  0.0622
    1DIPC   D3B 3971  27.933   8.241   4.614 -0.2386  0.2981  0.1933
    1DIPC   C4B 3972  27.727   7.870   4.402  0.0025  0.1453  0.1237
    1DIPC   NC3 3973  28.927  18.660   6.436  0.0514 -0.2114 -0.1061
    1DIPC   PO4 3974  28.966  18.888   6.070 -0.0115  0.2221 -0.1810
    1DIPC   GL1 3975  28.960  18.587   5.632  0.1298  0.0339 -0.2661
    1DIPC   GL2 3976  28.721  18.616   5.561  0.0466 -0.0927  0.1467
    1DIPC   C1A 3977  28.933  18.330   5.225  0.0753  0.1511  0.1258
    1DIPC   D2A 3978  28.924  18.052   4.912  0.1134 -0.1059  0.3228
    1DIPC   D3A 3979  29.077  18.226   4.573 -0.3068  0.1090 -0.2024
    1DIPC   C4A 3980  29.100  17.942   4.282  0.1428 -0.3024  0.0514
    1DIPC   C1B 3981  28.656  18.789   5.178  0.3669 -0.0213  0.0047
    1DIPC   D2B 3982  28.573  18.949   4.728 -0.1645  0.0590 -0.0699
    1DIPC   D3B 3983  28.389  18.755   4.363 -0.1472  0.0945  0.0893
    1DIPC   C4B 3984  27.929  18.621   4.456 -0.1563  0.3035  0.0607
    1DIPC   NC3 3985   1.916   8.220   6.833 -0.1556 -0.3053 -0.0416
    1DIPC   PO4 3986   1.766   8.513   6.542 -0.0309 -0.0088  0.1657
    1DIPC   GL1 3987   1.785   8.562   6.116  0.2117 -0.1831  0.1248
    1DIPC   GL2 3988   1.515   8.433   6.036 -0.1060 -0.1971 -0.1501
    1DIPC   C1A 3989   2.144   8.688   5.833  0.2508  0.0475  0.2107
    1DIPC   D2A 3990   2.123   9.042   5.592  0.0528  0.2652 -0.1295
    1DIPC   D3A 3991   2.265   8.853   5.284  0.2006 -0.1547  0.1538
    1DIPC   C4A 3992   2.635   8.567   5.469  0.0820 -0.2686  0.3641
    1DIPC   C1B 3993   1.381   8.441   5.674 -0.1532  0.1712 -0.1271
    1DIPC   D2B 3994   1.223   8.751   5.425 -0.0063 -0.0014 -0.0769
    1DIPC   D3B 3995   0.806   8.530   5.319  0.0173 -0.2299  0.1325
    1DIPC   C4B 3996   0.963   8.589   4.884 -0.0614 -0.0634  0.1878
    1DIPC   NC3 3997  10.258   1.161   7.015 -0.0034  0.1907 -0.0931
    1DIPC   PO4 3998  10.681   1.436   7.126 -0.0329 -0.2214 -0.2467
    1DIPC   GL1 3999  10.657   1.667   6.769  0.3244 -0.0727  0.1390
    1DIPC   GL2 4000  10.535   1.918   6.746  0.3488 -0.3157 -0.0101
    1DIPC   C1A 4001  10.639   1.677   6.296 -0.1922  0.2924 -0.1436
    1DIPC   D2A 4002  10.567   1.422   5.922 -0.0177  0.0977  0.0492
    1DIPC   D3A 4003  10.978   1.654   5.930 -0.2104  0.0265 -0.2302
    1DIPC   C4A 4004  11.366   1.433   5.956 -0.1643 -0.2240 -0.3311
    1DIPC   C1B 4005  10.597   2.133   6.320 -0.1905  0.0697 -0.0538
    1DIPC   D2B 4006  10.478   2.356   5.933  0.1418 -0.0238  0.0705
    1DIPC   D3B 4007  10.408   2.709   5.704  0.0538 -0.2232  0.0141
    1DIPC   C4B 4008  10.705   2.912   5.472  0.0813  0.1388  0.2568
    1DIPC   NC3 4009  12.973  29.075   7.716 -0.0800 -0.1405 -0.2447
    1DIPC   PO4 4010  12.560  28.958   7.620 -0.0290 -0.1373 -0.3446
    1DIPC   GL1 4011  12.762  28.895   7.257  0.2620  0.0001 -0.0886
    1DIPC   GL2 4012  12.828  29.140   7.019 -0.2093 -0.2662 -0.2165
    1DIPC   C1A 4013  12.857  28.585   7.029  0.1525  0.0464  0.1390
    1DIPC   D2A 4014  12.905  28.302   6.731 -0.2495  0.2015 -0.3471
    1DIPC   D3A 4015  13.266  28.373   6.853 -0.1776  0.0228  0.0619
    1DIPC   C4A 4016  13.225  28.333   7.348 -0.2067  0.0751 -0.0492
    1DIPC   C1B 4017  12.881  28.934   6.659 -0.2107  0.0846 -0.1950
    1DIPC   D2B 4018  13.081  28.614   6.334 -0.1097  0.2056  0.0107
    1DIPC   D3B 4019  12.739  28.512   6.043 -0.0552  0.0576 -0.0212
    1DIPC   C4B 4020  12.325  28.436   6.137 -0.1847  0.0664  0.3235
    1DIPC   NC3 4021  12.568   6.431   7.257  0.0458  0.0132  0.0858
    1DIPC   PO4 4022  12.401   6.834   7.323  0.0838 -0.0969 -0.1366
    1DIPC   GL1 4023  12.512   6.662   6.754 -0.3076 -0.0574 -0.1048
    1DIPC   GL2 4024  12.557   7.033   6.594 -0.3002 -0.1068 -0.2977
    1DIPC   C1A 4025  12.304   6.515   6.383  0.1636  0.1235  0.0346
    1DIPC   D2A 4026  12.052   6.649   5.967 -0.0894 -0.0826 -0.0037
    1DIPC   D3A 4027  11.826   6.337   6.325  0.0259 -0.2985 -0.0560
    1DIPC   C4A 4028  11.412   6.340   6.463 -0.0411  0.4044 -0.1496
    1DIPC   C1B 4029  12.681   6.852   6.149 -0.3186  0.1360  0.1073
    1DIPC   D2B 4030  13.088   6.646   5.906  0.1906  0.1532  0.0908
    1DIPC   D3B 4031  13.048   6.545   5.421 -0.2078 -0.0079  0.1900
    1DIPC   C4B 4032  13.405   6.396   5.254 -0.1724 -0.0595  0.5475
    1DIPC   NC3 4033  13.252   5.775   7.650 -0.3812 -0.0694  0.1839
    1DIPC   PO4 4034  13.180   5.479   7.304 -0.1079 -0.3288  0.0858
    1DIPC   GL1 4035  12.968   5.281   6.905  0.0061 -0.1190  0.0177
    1DIPC   GL2 4036  12.951   4.905   6.911 -0.1083  0.2650 -0.2138
    1DIPC   C1A 4037  12.921   5.320   6.440 -0.3723  0.1558 -0.0171
    1DIPC   D2A 4038  12.996   4.989   6.256  0.0998  0.0465  0.1579
    1DIPC   D3A 4039  12.756   5.206   5.947 -0.3218  0.1046 -0.0545
    1DIPC   C4A 4040  13.013   5.382   5.599  0.2375 -0.1621 -0.1407
    1DIPC   C1B 4041  12.593   4.856   6.587 -0.1448  0.4310  0.0690
    1DIPC   D2B 4042  12.507   4.798   6.186 -0.2578 -0.2135 -0.1122
    1DIPC   D3B 4043  12.111   4.744   6.369  0.1457 -0.1454 -0.2232
    1DIPC   C4B 4044  11.835   4.847   6.007  0.2790 -0.0264 -0.0354
    1DIPC   NC3 4045   8.059  27.434   7.885 -0.0783 -0.0599  0.0251
    1DIPC   PO4 4046   8.151  27.578   7.401  0.1151  0.0545 -0.2301
    1DIPC   GL1 4047   8.206  27.513   6.849 -0.1002  0.0353  0.1110
    1DIPC   GL2 4048   8.228  27.212   6.659  0.0364 -0.0647 -0.0737
    1DIPC   C1A 4049   7.948  27.620   6.464  0.0538 -0.0592  0.2034
    1DIPC   D2A 4050   7.842  27.969   6.246  0.2486 -0.1380 -0.0947
    1DIPC   D3A 4051   7.640  28.221   6.034 -0.1384  0.2012 -0.1109
    1DIPC   C4A 4052   7.622  28.239   5.517  0.0963 -0.3223  0.0873
    1DIPC   C1B 4053   8.126  27.268   6.131  0.3651  0.1269  0.1697
    1DIPC   D2B 4054   7.805  27.455   5.830  0.1515 -0.1288  0.1805
    1DIPC   D3B 4055   7.494  27.291   5.674  0.0116 -0.0019  0.2939
    1DIPC   C4B 4056   7.279  27.269   5.258 -0.1952 -0.0642  0.3921
    1DIPC   NC3 4057  28.169   0.766   6.647  0.1279 -0.1248  0.2075
    1DIPC   PO4 4058  27.908   1.198   6.486  0.0488 -0.1228 -0.0825
    1DIPC   GL1 4059  27.995   1.388   6.094 -0.0886  0.2007  0.1636
    1DIPC   GL2 4060  28.332   1.492   6.085  0.2260  0.0855  0.0571
    1DIPC   C1A 4061  28.003   1.480   5.651  0.1772 -0.0275  0.4323
    1DIPC   D2A 4062  28.346   1.416   5.338 -0.3506  0.0457  0.0485
    1DIPC   D3A 4063  28.240   1.201   4.957 -0.4313  0.0305  0.0349
    1DIPC   C4A 4064  28.037   0.876   4.855 -0.2255 -0.0774 -0.1902
    1DIPC   C1B 4065  28.464   1.684   5.721 -0.0661  0.1826  0.1623
    1DIPC   D2B 4066  28.737   1.765   5.285 -0.1563  0.1692 -0.0250
    1DIPC   D3B 4067  29.139   1.586   5.274  0.1522 -0.0546  0.0336
    1DIPC   C4B 4068  29.287   1.330   5.049 -0.0134  0.1438 -0.0824
    1DIPC   NC3 4069  10.243  25.900   6.868 -0.0778  0.0379  0.0547
    1DIPC   PO4 4070  10.578  25.693   6.827  0.2147 -0.0424  0.2283
    1DIPC   GL1 4071  10.626  26.026   6.585  0.3710  0.0689 -0.2067
    1DIPC   GL2 4072  10.489  26.281   6.587 -0.2671  0.0971 -0.0001
    1DIPC   C1A 4073  10.816  26.176   6.176  0.2030  0.0673  0.1652
    1DIPC   D2A 4074  10.649  26.381   5.837  0.0089  0.4093  0.3270
    1DIPC   D3A 4075  11.093  26.347   5.778  0.0307 -0.0470 -0.1153
    1DIPC   C4A 4076  11.530  26.494   6.072  0.0551 -0.1052 -0.0888
    1DIPC   C1B 4077  10.248  26.250   6.229 -0.0398  0.0370 -0.3046
    1DIPC   D2B 4078  10.108  26.498   5.886  0.1285  0.2305  0.0561
    1DIPC   D3B 4079   9.856  26.638   5.554  0.1301  0.3345 -0.2939
    1DIPC   C4B 4080   9.806  27.056   5.630  0.3151  0.1423  0.0538
    1DIPC   NC3 4081   4.053  28.409   6.839  0.1660 -0.0239 -0.2332
    1DIPC   PO4 4082   3.913  28.561   6.392 -0.0314  0.0544 -0.1459
    1DIPC   GL1 4083   3.841  28.345   6.110 -0.0773 -0.1750  0.3264
    1DIPC   GL2 4084   3.656  28.633   5.918  0.1156 -0.0203 -0.0393
    1DIPC   C1A 4085   3.595  28.112   5.773 -0.1089  0.2001 -0.0134
    1DIPC   D2A 4086   3.622  27.989   5.387 -0.1429 -0.0545  0.0667
    1DIPC   D3A 4087   3.718  28.286   5.082 -0.0151  0.1532 -0.1390
    1DIPC   C4A 4088   3.717  28.115   4.599 -0.0822 -0.0809 -0.1033
    1DIPC   C1B 4089   4.148  28.699   5.738 -0.0100 -0.0084 -0.1489
    1DIPC   D2B 4090   4.426  28.835   5.412 -0.1909 -0.3350  0.2031
    1DIPC   D3B 4091   4.648  28.666   5.063 -0.1380 -0.3137  0.0686
    1DIPC   C4B 4092   4.901  28.580   4.776 -0.2114 -0.1786  0.1940
    1DIPC   NC3 4093   7.496  16.457   6.538  0.0093  0.2001  0.0414
    1DIPC   PO4 4094   7.374  16.810   6.273 -0.1709 -0.0539  0.1162
    1DIPC   GL1 4095   7.529  16.424   6.031 -0.0310  0.4685  0.0659
    1DIPC   GL2 4096   7.557  16.629   5.809 -0.0278  0.2238 -0.3130
    1DIPC   C1A 4097   7.844  16.265   5.698  0.1545 -0.0090  0.2800
    1DIPC   D2A 4098   8.165  16.118   5.504  0.1633  0.2040  0.1085
    1DIPC   D3A 4099   8.156  15.760   5.222  0.1290 -0.0743  0.1651
    1DIPC   C4A 4100   7.785  15.530   4.984  0.0697 -0.0784 -0.1724
    1DIPC   C1B 4101   7.646  16.672   5.389  0.0843 -0.4006  0.5654
    1DIPC   D2B 4102   7.977  16.514   5.042  0.0865 -0.0816  0.2498
    1DIPC   D3B 4103   7.612  16.556   4.814  0.0011 -0.0855  0.2612
    1DIPC   C4B 4104   7.545  16.441   4.447 -0.3061 -0.0379  0.2001
    1DIPC   NC3 4105  26.616   9.232   6.097  0.0151  0.1178 -0.2256
    1DIPC   PO4 4106  26.814   8.668   6.110 -0.0864 -0.0941 -0.3642
    1DIPC   GL1 4107  26.651   8.546   5.738  0.1637  0.2268  0.2270
    1DIPC   GL2 4108  26.448   8.733   5.737  0.1591  0.0268  0.1054
    1DIPC   C1A 4109  26.773   8.338   5.362  0.1650 -0.1201  0.0835
    1DIPC   D2A 4110  26.953   8.371   4.940 -0.0696 -0.1993  0.0881
    1DIPC   D3A 4111  26.711   7.969   4.895  0.0279  0.1903 -0.1613
    1DIPC   C4A 4112  26.284   7.877   4.937  0.0555 -0.1168  0.0707
    1DIPC   C1B 4113  26.031   8.687   5.683  0.0010  0.3641  0.2783
    1DIPC   D2B 4114  25.750   8.463   5.474 -0.0335 -0.2746 -0.1045
    1DIPC   D3B 4115  25.996   8.536   5.127 -0.2229  0.0906  0.0649
    1DIPC   C4B 4116  26.359   8.434   5.042  0.0594  0.0631 -0.0781
    1DIPC   NC3 4117  25.922  20.739   6.689  0.0231  0.1190  0.3306
    1DIPC   PO4 4118  25.811  21.163   6.930 -0.1155 -0.1268  0.3532
    1DIPC   GL1 4119  26.162  21.342   6.663 -0.1160  0.0190 -0.5042
    1DIPC   GL2 4120  26.184  21.116   6.442  0.0551 -0.1063 -0.0656
    1DIPC   C1A 4121  26.447  21.545   6.473 -0.2448  0.0623  0.2195
    1DIPC   D2A 4122  26.516  21.531   6.051 -0.0490 -0.0402  0.3411
    1DIPC   D3A 4123  26.347  21.529   5.663  0.0886 -0.0819  0.1304
    1DIPC   C4A 4124  25.916  21.666   5.779 -0.2339  0.3418  0.0438
    1DIPC   C1B 4125  26.222  21.176   6.089  0.0558  0.0118 -0.1540
    1DIPC   D2B 4126  26.197  20.931   5.752  0.2771  0.4328  0.0641
    1DIPC   D3B 4127  25.972  21.249   5.448  0.1844  0.0009 -0.1426
    1DIPC   C4B 4128  25.603  21.217   5.781 -0.1039 -0.0006  0.2768
    1DIPC   NC3 4129   9.880  28.899   7.677  0.0626 -0.0681  0.0725
    1DIPC   PO4 4130   9.786  28.909   7.300  0.3179  0.1417  0.0311
    1DIPC   GL1 4131   9.756  29.266   6.885  0.1291 -0.0789  0.2085
    1DIPC   GL2 4132   9.767  29.558   6.979  0.1545 -0.2999 -0.1479
    1DIPC   C1A 4133  10.006  29.160   6.569 -0.1657  0.0043  0.0297
    1DIPC   D2A 4134  10.356  29.032   6.302 -0.0681  0.3258  0.1836
    1DIPC   D3A 4135  10.180  29.427   6.193  0.0036  0.3098  0.2262
    1DIPC   C4A 4136  10.016  29.511   5.797 -0.0312 -0.0163 -0.3222
    1DIPC   C1B 4137  10.063  29.694   6.630  0.1855  0.1380  0.4032
    1DIPC   D2B 4138  10.155  29.973   6.383 -0.0982 -0.1978  0.0169
    1DIPC   D3B 4139   9.912  29.929   6.053 -0.4122 -0.3925 -0.1964
    1DIPC   C4B 4140   9.833  30.125   5.634  0.0442  0.0568 -0.1251
    1DIPC   NC3 4141   4.183   2.405   6.402 -0.0621 -0.1278  0.0481
    1DIPC   PO4 4142   3.782   2.108   6.233 -0.0277  0.1270  0.1379
    1DIPC   GL1 4143   3.883   1.886   5.879 -0.0375  0.2739 -0.1007
    1DIPC   GL2 4144   3.665   1.684   5.728  0.2514 -0.2268  0.0609
    1DIPC   C1A 4145   4.128   1.759   5.493  0.1021  0.2285  0.2038
    1DIPC   D2A 4146   4.295   1.638   5.115  0.1123  0.3154 -0.0375
    1DIPC   D3A 4147   3.868   1.720   4.932 -0.0606  0.3387 -0.2464
    1DIPC   C4A 4148   3.631   1.940   5.172 -0.3871  0.2779 -0.0229
    1DIPC   C1B 4149   3.699   1.196   5.533  0.0685 -0.2057 -0.0778
    1DIPC   D2B 4150   3.300   0.982   5.338  0.0612 -0.4114  0.2929
    1DIPC   D3B 4151   3.638   0.776   5.010  0.1324  0.1207  0.0648
    1DIPC   C4B 4152   3.783   0.412   5.354  0.1932 -0.0892 -0.3295
    1DIPC   NC3 4153  13.628  24.688   7.388 -0.2894  0.4490 -0.0685
    1DIPC   PO4 4154  13.799  24.917   7.126  0.2055  0.0606 -0.1336
    1DIPC   GL1 4155  13.957  25.057   6.755 -0.1376 -0.2132  0.1899
    1DIPC   GL2 4156  13.710  24.998   6.618 -0.1886  0.3547  0.1546
    1DIPC   C1A 4157  14.109  25.315   6.398 -0.1693  0.1510  0.0779
    1DIPC   D2A 4158  14.363  25.236   6.008  0.2318 -0.0640 -0.2285
    1DIPC   D3A 4159  14.507  25.633   6.225 -0.2302 -0.0032 -0.3153
    1DIPC   C4A 4160  14.199  25.841   6.462  0.0852 -0.0607  0.0851
    1DIPC   C1B 4161  13.531  24.736   6.358  0.0076 -0.2710 -0.0461
    1DIPC   D2B 4162  13.094  24.762   6.209 -0.0124  0.3526  0.0708
    1DIPC   D3B 4163  13.407  24.789   5.882 -0.1980  0.0605 -0.0983
    1DIPC   C4B 4164  13.541  25.164   5.597 -0.1752  0.3220 -0.0481
    1DIPC   NC3 4165  16.710   3.908   7.180 -0.2501 -0.0389  0.4624
    1DIPC   PO4 4166  16.696   4.313   7.077 -0.1302 -0.2267  0.0202
    1DIPC   GL1 4167  16.871   4.357   6.716  0.0569  0.0270 -0.1068
    1DIPC   GL2 4168  16.707   4.069   6.496 -0.0638  0.0048  0.1114
    1DIPC   C1A 4169  16.973   4.640   6.392  0.2678 -0.1450 -0.0023
    1DIPC   D2A 4170  17.248   4.977   6.311  0.0033 -0.1033  0.0914
    1DIPC   D3A 4171  17.589   5.261   6.092  0.0898 -0.0468  0.1878
    1DIPC   C4A 4172  17.475   5.315   5.700  0.1954  0.0531 -0.1243
    1DIPC   C1B 4173  16.618   4.253   6.253  0.0806 -0.0154  0.2678
    1DIPC   D2B 4174  16.475   4.672   6.247 -0.1281 -0.2477 -0.0870
    1DIPC   D3B 4175  16.066   4.730   6.446 -0.2696 -0.3172 -0.3033
    1DIPC   C4B 4176  15.631   4.582   6.266  0.2112  0.1968  0.0040
    1DIPC   NC3 4177  19.735  22.313   7.206  0.0642  0.0501 -0.0400
    1DIPC   PO4 4178  19.889  22.436   6.826 -0.1745  0.1931  0.0451
    1DIPC   GL1 4179  19.906  22.579   6.334 -0.0130  0.2691 -0.3408
    1DIPC   GL2 4180  20.176  22.650   6.159 -0.0932  0.0474  0.2448
    1DIPC   C1A 4181  19.821  22.423   5.915 -0.0715 -0.0883 -0.1025
    1DIPC   D2A 4182  19.886  22.594   5.382  0.2747  0.0615 -0.1195
    1DIPC   D3A 4183  20.088  22.367   5.070  0.0073  0.4612  0.0093
    1DIPC   C4A 4184  19.918  22.033   4.834  0.0164  0.0648 -0.4508
    1DIPC   C1B 4185  20.300  22.939   5.815  0.1562  0.1385  0.2180
    1DIPC   D2B 4186  20.506  23.147   5.436  0.0391 -0.2375  0.0232
    1DIPC   D3B 4187  20.834  22.871   5.127 -0.2146  0.0062 -0.6472
    1DIPC   C4B 4188  20.719  22.505   4.894 -0.0813  0.1188 -0.1260
    1DIPC   NC3 4189  17.443  24.222   7.196 -0.0657  0.2081 -0.1391
    1DIPC   PO4 4190  17.727  24.226   6.813 -0.3755  0.1689  0.0005
    1DIPC   GL1 4191  17.533  24.405   6.414  0.2117 -0.0986  0.2147
    1DIPC   GL2 4192  17.266  24.570   6.445 -0.0552  0.1365 -0.2044
    1DIPC   C1A 4193  17.501  24.097   5.993  0.3350 -0.3330 -0.0844
    1DIPC   D2A 4194  17.417  23.894   5.594  0.0722  0.0358 -0.1546
    1DIPC   D3A 4195  17.204  24.279   5.412  0.2870 -0.1616  0.1274
    1DIPC   C4A 4196  16.888  24.335   5.179 -0.0919 -0.0126  0.2287
    1DIPC   C1B 4197  17.335  24.593   5.945  0.3026 -0.1784 -0.3079
    1DIPC   D2B 4198  17.076  24.787   5.566 -0.2120  0.1980 -0.3188
    1DIPC   D3B 4199  16.723  24.744   5.450  0.2680  0.3551 -0.2020
    1DIPC   C4B 4200  16.595  24.680   5.007  0.1015  0.0702  0.2479
    1DIPC   NC3 4201  24.452   6.139   6.068  0.1935 -0.0863  0.0937
    1DIPC   PO4 4202  24.107   6.483   5.930  0.1453 -0.0917 -0.2444
    1DIPC   GL1 4203  23.724   6.665   5.632  0.3048 -0.0007 -0.1011
    1DIPC   GL2 4204  23.863   7.018   5.665  0.1147  0.3863  0.2290
    1DIPC   C1A 4205  23.367   6.426   5.559 -0.1761  0.1532  0.1031
    1DIPC   D2A 4206  23.215   6.092   5.262  0.0711 -0.1161  0.4067
    1DIPC   D3A 4207  22.797   5.783   5.231  0.0449 -0.0373 -0.2082
    1DIPC   C4A 4208  22.562   5.725   4.869  0.0677 -0.1041  0.2702
    1DIPC   C1B 4209  23.885   6.824   5.162  0.0133  0.1326  0.0137
    1DIPC   D2B 4210  23.611   6.850   4.728  0.2028  0.3521  0.0779
    1DIPC   D3B 4211  23.468   6.540   4.973 -0.1342 -0.0051  0.3306
    1DIPC   C4B 4212  23.204   6.269   4.769 -0.0844 -0.1660 -0.2481
    1DIPC   NC3 4213  29.203  17.296   6.100 -0.0424  0.0181 -0.0978
    1DIPC   PO4 4214  28.755  17.510   6.135 -0.2982  0.0105 -0.0779
    1DIPC   GL1 4215  28.985  17.447   5.708  0.0229  0.1859  0.1253
    1DIPC   GL2 4216  29.091  17.088   5.590  0.0953  0.0437  0.0131
    1DIPC   C1A 4217  29.181  17.728   5.364  0.2547 -0.0015  0.0579
    1DIPC   D2A 4218  29.560  17.834   5.352  0.1029 -0.0940  0.1328
    1DIPC   D3A 4219  29.865  17.699   5.018  0.0509  0.1267  0.1005
    1DIPC   C4A 4220  29.887  17.923   4.630  0.0169 -0.3195 -0.0537
    1DIPC   C1B 4221  29.003  17.191   5.123  0.1170 -0.1198  0.0877
    1DIPC   D2B 4222  28.936  16.860   4.930 -0.0054 -0.1162  0.0610
    1DIPC   D3B 4223  28.919  16.854   4.526 -0.1608 -0.0078 -0.1284
    1DIPC   C4B 4224  28.767  16.518   4.344 -0.3648 -0.0481 -0.1010
    1DIPC   NC3 4225  11.677   9.341   7.571  0.0585 -0.1000 -0.0352
    1DIPC   PO4 4226  11.778   9.721   7.376  0.0358  0.3264  0.0258
    1DIPC   GL1 4227  11.647   9.660   6.965 -0.0080  0.0974  0.5098
    1DIPC   GL2 4228  11.378   9.742   6.838  0.1728 -0.0504 -0.3020
    1DIPC   C1A 4229  11.745   9.623   6.509  0.2273  0.1134 -0.2294
    1DIPC   D2A 4230  11.592   9.580   6.118 -0.1489 -0.1681 -0.4173
    1DIPC   D3A 4231  11.531   9.458   5.730  0.4087  0.1221  0.2336
    1DIPC   C4A 4232  11.301   9.491   5.456 -0.2926  0.2213  0.2789
    1DIPC   C1B 4233  11.187   9.614   6.480  0.1201 -0.2620  0.0586
    1DIPC   D2B 4234  11.132   9.484   6.089  0.2080 -0.1458 -0.1255
    1DIPC   D3B 4235  10.900   9.564   5.915  0.3657  0.2819 -0.1495
    1DIPC   C4B 4236  10.817   9.647   5.431  0.4933 -0.0069 -0.2426
    1DIPC   NC3 4237  28.122  25.000   6.643  0.4889  0.1216  0.3478
    1DIPC   PO4 4238  28.329  24.643   6.509 -0.5554  0.4123 -0.0904
    1DIPC   GL1 4239  28.088  24.690   6.154 -0.0054 -0.0388  0.0730
    1DIPC   GL2 4240  27.840  24.852   6.145 -0.0816 -0.0954 -0.1149
    1DIPC   C1A 4241  28.191  24.647   5.675  0.1009 -0.0954 -0.0457
    1DIPC   D2A 4242  28.265  24.294   5.396  0.1267 -0.2915  0.2571
    1DIPC   D3A 4243  28.359  24.710   5.176 -0.1392  0.2724  0.0089
    1DIPC   C4A 4244  28.696  24.830   4.958  0.1883  0.3797 -0.0656
    1DIPC   C1B 4245  27.757  24.787   5.701  0.0408  0.2627  0.2424
    1DIPC   D2B 4246  27.726  24.807   5.240  0.1774 -0.0764  0.0067
    1DIPC   D3B 4247  27.521  24.460   5.091 -0.1509  0.0205  0.1164
    1DIPC   C4B 4248  27.611  24.295   4.705 -0.1329  0.1434  0.0886
    1DIPC   NC3 4249  11.326  27.170   7.325  0.1719 -0.0225  0.0484
    1DIPC   PO4 4250  11.359  27.637   7.356 -0.0310 -0.2965  0.1404
    1DIPC   GL1 4251  11.296  27.811   6.872  0.0328 -0.0765  0.2953
    1DIPC   GL2 4252  11.004  27.787   6.811 -0.0322  0.0395 -0.0158
    1DIPC   C1A 4253  11.592  28.153   6.639  0.1174  0.4240  0.2498
    1DIPC   D2A 4254  11.692  28.538   6.330 -0.1508  0.2595 -0.1111
    1DIPC   D3A 4255  11.278  28.600   6.152 -0.0231  0.0116 -0.3265
    1DIPC   C4A 4256  11.239  28.228   5.676  0.3721 -0.2727 -0.1271
    1DIPC   C1B 4257  11.082  27.774   6.337 -0.0971 -0.2101 -0.0402
    1DIPC   D2B 4258  10.836  28.111   6.092  0.2135 -0.1047 -0.1717
    1DIPC   D3B 4259  10.370  28.268   6.020  0.0575 -0.0982  0.1770
    1DIPC   C4B 4260  10.089  28.128   5.639 -0.6936  0.1870  0.1646
    1DIPC   NC3 4261   4.455  23.952   5.942 -0.3731 -0.0163 -0.0424
    1DIPC   PO4 4262   4.379  23.491   5.702 -0.0475  0.0708  0.1915
    1DIPC   GL1 4263   4.467  23.348   5.291  0.1260 -0.0762 -0.0351
    1DIPC   GL2 4264   4.196  23.302   5.122 -0.2511  0.2490  0.0515
    1DIPC   C1A 4265   4.703  23.178   4.893  0.2214 -0.2288 -0.1406
    1DIPC   D2A 4266   5.079  23.070   4.608 -0.1428 -0.0561  0.0916
    1DIPC   D3A 4267   5.412  22.774   4.689  0.3634  0.2116 -0.2385
    1DIPC   C4A 4268   5.588  22.711   5.033 -0.4175 -0.0221  0.0730
    1DIPC   C1B 4269   3.876  23.452   4.894 -0.1741 -0.2353 -0.1612
    1DIPC   D2B 4270   3.473  23.625   5.049 -0.0443 -0.1131 -0.3606
    1DIPC   D3B 4271   3.334  23.583   5.460  0.1830  0.3214 -0.3464
    1DIPC   C4B 4272   3.094  23.944   5.705 -0.0455  0.1785  0.4066
    1DIPC   NC3 4273   5.833  23.055   5.922 -0.1829 -0.2366  0.1251
    1DIPC   PO4 4274   5.977  22.768   5.735  0.0105  0.1924  0.1767
    1DIPC   GL1 4275   5.947  22.576   5.396  0.0255 -0.0439 -0.1567
    1DIPC   GL2 4276   6.168  22.686   5.059  0.4553  0.0234 -0.1284
    1DIPC   C1A 4277   5.629  22.246   5.211 -0.0557  0.2024 -0.0371
    1DIPC   D2A 4278   5.492  22.069   4.811  0.1912 -0.0249 -0.1477
    1DIPC   D3A 4279   5.786  21.918   4.455 -0.0636  0.1250 -0.1707
    1DIPC   C4A 4280   5.820  22.101   3.999  0.1405 -0.0347  0.0715
    1DIPC   C1B 4281   5.899  22.654   4.643  0.1746  0.0342 -0.1806
    1DIPC   D2B 4282   6.076  22.471   4.320 -0.0774  0.0263 -0.2742
    1DIPC   D3B 4283   6.471  22.548   4.172  0.2275 -0.2482 -0.3600
    1DIPC   C4B 4284   6.730  22.863   4.104  0.0761  0.0737  0.0783
    1DIPC   NC3 4285  14.966   2.401   6.999 -0.3244  0.0366  0.4603
    1DIPC   PO4 4286  14.784   1.984   6.927 -0.2116  0.2812 -0.1109
    1DIPC   GL1 4287  14.838   2.356   6.515 -0.2173 -0.1176 -0.0805
    1DIPC   GL2 4288  14.948   2.418   6.205  0.0754 -0.1103 -0.1273
    1DIPC   C1A 4289  14.591   2.715   6.341  0.0415  0.1014  0.2360
    1DIPC   D2A 4290  14.398   3.124   6.327  0.1327  0.0325  0.1167
    1DIPC   D3A 4291  14.095   3.255   6.031 -0.1185  0.1296  0.0533
    1DIPC   C4A 4292  13.761   3.209   5.664 -0.3912 -0.1903  0.2430
    1DIPC   C1B 4293  14.447   2.251   6.251  0.3349  0.1068  0.2620
    1DIPC   D2B 4294  14.004   2.187   6.451 -0.1611  0.4571  0.2837
    1DIPC   D3B 4295  13.683   2.099   6.186 -0.1077  0.1595  0.0620
    1DIPC   C4B 4296  13.301   2.385   6.062 -0.1216  0.0329  0.2170
    1DIPC   NC3 4297  14.911  25.875   7.223 -0.1299  0.0250  0.1138
    1DIPC   PO4 4298  14.891  26.335   7.329  0.1922  0.0437 -0.0881
    1DIPC   GL1 4299  14.640  26.473   7.071  0.0692 -0.3421  0.2302
    1DIPC   GL2 4300  14.923  26.542   6.826  0.5098  0.0733 -0.2150
    1DIPC   C1A 4301  14.419  26.595   6.642  0.2147  0.5234 -0.1447
    1DIPC   D2A 4302  14.067  26.838   6.367  0.1169  0.2459  0.0041
    1DIPC   D3A 4303  13.742  26.762   6.033  0.0298 -0.3992 -0.1338
    1DIPC   C4A 4304  13.735  26.883   5.564  0.0884  0.2119 -0.0806
    1DIPC   C1B 4305  14.969  26.470   6.407 -0.2387  0.1488 -0.0623
    1DIPC   D2B 4306  14.839  26.762   6.093  0.0455 -0.0722  0.0312
    1DIPC   D3B 4307  14.462  26.838   6.114  0.1627 -0.1341  0.0691
    1DIPC   C4B 4308  14.494  27.080   6.448 -0.3124  0.3147  0.1185
    1DIPC   NC3 4309   7.722   4.070   7.277 -0.1068 -0.0748  0.0655
    1DIPC   PO4 4310   7.873   3.613   7.051 -0.1273  0.0666  0.1461
    1DIPC   GL1 4311   8.236   3.576   6.791 -0.0879  0.0276 -0.0103
    1DIPC   GL2 4312   8.328   3.215   6.654 -0.3959  0.2773 -0.1964
    1DIPC   C1A 4313   8.244   3.782   6.360 -0.2650 -0.1080  0.3085
    1DIPC   D2A 4314   8.376   4.168   6.124 -0.0094  0.1975 -0.0100
    1DIPC   D3A 4315   7.981   4.224   6.379 -0.0430 -0.0646  0.0097
    1DIPC   C4A 4316   7.605   4.157   6.118  0.0335  0.0648 -0.0652
    1DIPC   C1B 4317   8.532   3.281   6.207  0.3493 -0.1481 -0.0075
    1DIPC   D2B 4318   8.814   3.214   5.870  0.1198  0.1945  0.2214
    1DIPC   D3B 4319   9.079   3.316   5.442 -0.0281 -0.0021 -0.2208
    1DIPC   C4B 4320   9.428   3.114   5.339 -0.3824  0.1231  0.2446
    1DIPC   NC3 4321   0.078  19.209   6.148 -0.1188  0.1428  0.0435
    1DIPC   PO4 4322   0.371  19.569   5.992 -0.1527 -0.0726 -0.3707
    1DIPC   GL1 4323   0.480  19.323   5.581  0.1813  0.1636 -0.3248
    1DIPC   GL2 4324   0.710  19.096   5.554  0.1563 -0.0641 -0.0541
    1DIPC   C1A 4325   0.214  19.424   5.239  0.0663  0.2655 -0.2448
    1DIPC   D2A 4326  -0.008  19.853   5.078 -0.1258  0.1132 -0.0969
    1DIPC   D3A 4327  -0.305  19.761   4.777  0.0831 -0.0930 -0.1525
    1DIPC   C4A 4328   0.014  19.502   4.550  0.2228  0.1068  0.3333
    1DIPC   C1B 4329   0.878  19.027   5.213 -0.5120  0.0235  0.2757
    1DIPC   D2B 4330   0.907  18.631   5.051 -0.0448 -0.0775 -0.0789
    1DIPC   D3B 4331   0.795  18.893   4.707  0.1414  0.0245  0.1127
    1DIPC   C4B 4332   0.453  19.247   4.797 -0.0510 -0.0925 -0.0456
    1DIPC   NC3 4333   7.708  25.469   6.841 -0.0239 -0.1447  0.1662
    1DIPC   PO4 4334   8.036  25.776   6.937 -0.0655 -0.4682  0.2103
    1DIPC   GL1 4335   8.157  25.770   6.576 -0.4824  0.1313 -0.1236
    1DIPC   GL2 4336   8.316  26.101   6.547 -0.0970  0.0453 -0.0942
    1DIPC   C1A 4337   8.052  25.527   6.245  0.1656  0.0795 -0.1242
    1DIPC   D2A 4338   8.149  25.243   5.984 -0.2188 -0.1188  0.1901
    1DIPC   D3A 4339   8.605  25.262   5.980 -0.4543 -0.0979 -0.0109
    1DIPC   C4A 4340   8.865  25.322   5.568 -0.0642 -0.0579 -0.1034
    1DIPC   C1B 4341   8.020  26.193   6.247  0.1793 -0.0646 -0.1223
    1DIPC   D2B 4342   8.056  26.279   5.806 -0.1560  0.2623  0.0109
    1DIPC   D3B 4343   8.275  26.680   5.550  0.0671 -0.0626  0.2171
    1DIPC   C4B 4344   8.231  27.144   5.601 -0.4764 -0.0054  0.1491
    1DIPC   NC3 4345  21.279   1.612   5.921 -0.3017 -0.3690 -0.0913
    1DIPC   PO4 4346  21.132   1.192   5.950  0.1221 -0.3907  0.0507
    1DIPC   GL1 4347  20.733   1.047   5.745 -0.0281  0.0365 -0.3632
    1DIPC   GL2 4348  20.474   1.166   5.949 -0.2976  0.0378 -0.0221
    1DIPC   C1A 4349  20.606   0.941   5.427  0.1491 -0.0233  0.0907
    1DIPC   D2A 4350  20.880   0.604   5.330  0.0362 -0.1320  0.1502
    1DIPC   D3A 4351  20.840   0.303   4.937  0.1857 -0.1165 -0.3346
    1DIPC   C4A 4352  20.608  -0.053   4.985  0.1974  0.0910  0.2006
    1DIPC   C1B 4353  20.251   1.263   5.635  0.1586 -0.0691 -0.0622
    1DIPC   D2B 4354  19.827   1.359   5.395 -0.1336  0.1101  0.0947
    1DIPC   D3B 4355  19.857   0.959   5.655  0.0434 -0.1561 -0.2067
    1DIPC   C4B 4356  20.235   0.773   5.816 -0.0331  0.1164  0.0980
    1DIPC   NC3 4357   3.545  27.727   6.900  0.1023 -0.0344  0.0837
    1DIPC   PO4 4358   3.887  27.536   6.889  0.0397  0.1492  0.1464
    1DIPC   GL1 4359   3.866  27.567   6.489 -0.0939  0.2587  0.2298
    1DIPC   GL2 4360   4.065  27.355   6.226 -0.2663 -0.0494  0.3900
    1DIPC   C1A 4361   3.896  27.888   6.180  0.0466  0.2336 -0.1028
    1DIPC   D2A 4362   4.284  28.103   5.968 -0.1026  0.0572  0.0798
    1DIPC   D3A 4363   4.472  28.283   5.575  0.3893 -0.4791  0.3180
    1DIPC   C4A 4364   4.748  28.034   5.247  0.2904 -0.0537 -0.0911
    1DIPC   C1B 4365   4.235  27.597   5.983 -0.2269  0.0259 -0.3033
    1DIPC   D2B 4366   4.018  27.837   5.667  0.0543  0.0305  0.2695
    1DIPC   D3B 4367   4.201  27.921   5.159 -0.0049 -0.2185  0.0767
    1DIPC   C4B 4368   4.383  28.288   5.003  0.0509  0.0369  0.0421
    1DIPC   NC3 4369   7.138  28.123   7.250  0.0656  0.1385 -0.2066
    1DIPC   PO4 4370   7.506  28.298   7.336  0.0309 -0.1759  0.0703
    1DIPC   GL1 4371   7.349  28.398   6.905 -0.1607 -0.1550 -0.2589
    1DIPC   GL2 4372   7.556  28.365   6.552  0.1167 -0.0670  0.0539
    1DIPC   C1A 4373   7.032  28.393   6.579 -0.0132 -0.3204 -0.1390
    1DIPC   D2A 4374   6.623  28.366   6.371  0.2280 -0.3367 -0.1981
    1DIPC   D3A 4375   6.876  28.377   5.992 -0.1676  0.0799 -0.0343
    1DIPC   C4A 4376   7.203  28.061   5.835  0.0095  0.0392  0.0664
    1DIPC   C1B 4377   7.341  28.037   6.414 -0.1483  0.4512 -0.0180
    1DIPC   D2B 4378   6.999  27.759   6.216 -0.1710  0.1214  0.2058
    1DIPC   D3B 4379   6.720  27.908   5.909 -0.0725 -0.0683 -0.0074
    1DIPC   C4B 4380   6.830  28.027   5.508  0.1418  0.1749  0.0673
    1DIPC   NC3 4381  25.979  13.738   6.003  0.2268 -0.1533  0.0581
    1DIPC   PO4 4382  26.018  13.908   5.692  0.0595  0.2525 -0.0574
    1DIPC   GL1 4383  26.138  13.756   5.301  0.0730  0.0429  0.0232
    1DIPC   GL2 4384  26.411  13.636   5.206 -0.0877  0.0274 -0.1134
    1DIPC   C1A 4385  25.876  13.583   5.002  0.2168  0.0165  0.0434
    1DIPC   D2A 4386  25.524  13.792   5.082 -0.0115 -0.3653  0.2023
    1DIPC   D3A 4387  25.257  13.808   4.655 -0.5162  0.0548  0.2630
    1DIPC   C4A 4388  24.881  13.478   4.554 -0.1485  0.1617 -0.3023
    1DIPC   C1B 4389  26.347  13.695   4.779  0.0490 -0.0852  0.4436
    1DIPC   D2B 4390  26.247  13.906   4.392  0.0618 -0.0173 -0.2736
    1DIPC   D3B 4391  26.461  13.808   4.009 -0.2596  0.0468  0.2518
    1DIPC   C4B 4392  26.413  13.916   3.536  0.0363 -0.1590  0.1492
    1DIPC   NC3 4393   7.586  22.080   6.408 -0.1802  0.1655 -0.1702
    1DIPC   PO4 4394   7.717  22.182   6.077 -0.0789 -0.0723  0.0972
    1DIPC   GL1 4395   7.670  22.194   5.681 -0.2352  0.0328  0.0048
    1DIPC   GL2 4396   7.566  21.878   5.616 -0.0736  0.1800 -0.1498
    1DIPC   C1A 4397   7.556  22.291   5.266 -0.1704  0.0326  0.1571
    1DIPC   D2A 4398   7.497  22.016   4.845 -0.1756  0.1845 -0.1638
    1DIPC   D3A 4399   7.686  22.256   4.482  0.0774  0.0237 -0.1366
    1DIPC   C4A 4400   8.218  22.399   4.608 -0.0454 -0.2223 -0.1896
    1DIPC   C1B 4401   7.614  21.613   5.184 -0.1868  0.0151 -0.0791
    1DIPC   D2B 4402   7.847  21.202   5.073 -0.0651  0.1365  0.2237
    1DIPC   D3B 4403   8.263  21.368   4.953  0.0271 -0.0836 -0.0310
    1DIPC   C4B 4404   8.419  21.208   4.636  0.1096 -0.3827  0.1294
    1DIPC   NC3 4405  17.768   5.377   7.207  0.0856 -0.0173  0.0611
    1DIPC   PO4 4406  17.442   5.148   7.189 -0.1660 -0.3108  0.1281
    1DIPC   GL1 4407  17.329   5.355   6.843 -0.1331  0.0870 -0.1433
    1DIPC   GL2 4408  17.058   5.168   6.794 -0.1242 -0.0555 -0.0375
    1DIPC   C1A 4409  17.402   5.574   6.400  0.0493  0.2560  0.1812
    1DIPC   D2A 4410  17.352   5.746   6.022  0.0666  0.0050  0.2714
    1DIPC   D3A 4411  16.911   5.846   6.069  0.2758  0.3347 -0.3596
    1DIPC   C4A 4412  16.571   5.686   5.672 -0.0705 -0.1014  0.1832
    1DIPC   C1B 4413  16.960   5.388   6.402  0.3535  0.1061 -0.0842
    1DIPC   D2B 4414  16.993   5.324   5.923 -0.0679 -0.0040  0.2707
    1DIPC   D3B 4415  17.096   5.682   5.594  0.1466  0.2762  0.0109
    1DIPC   C4B 4416  17.523   5.774   5.433 -0.1848  0.1911  0.0036
    1DIPC   NC3 4417   0.212   2.958   6.379  0.1282  0.2003 -0.3112
    1DIPC   PO4 4418   0.438   2.625   6.270  0.0760 -0.0529  0.1860
    1DIPC   GL1 4419   0.187   2.676   5.946  0.0570 -0.2484  0.3226
    1DIPC   GL2 4420   0.312   3.046   5.899  0.3371 -0.0174  0.0525
    1DIPC   C1A 4421  -0.033   2.568   5.527 -0.1615  0.0014  0.0167
    1DIPC   D2A 4422  -0.130   2.427   5.103 -0.0186 -0.0571  0.0841
    1DIPC   D3A 4423   0.326   2.616   5.088  0.0623  0.1430 -0.2533
    1DIPC   C4A 4424   0.510   2.479   5.543  0.2806  0.1103  0.2528
    1DIPC   C1B 4425   0.558   2.975   5.610  0.3701  0.3012 -0.3825
    1DIPC   D2B 4426   0.640   3.074   5.150 -0.0723  0.0464  0.0038
    1DIPC   D3B 4427   0.798   2.695   4.972  0.0138 -0.0158  0.1067
    1DIPC   C4B 4428   0.672   2.253   4.917 -0.1353  0.2385 -0.1501
    1DIPC   NC3 4429   6.177   2.745   7.107  0.3098  0.1561  0.1365
    1DIPC   PO4 4430   6.449   2.982   6.885  0.2129  0.0263  0.0073
    1DIPC   GL1 4431   6.302   3.017   6.520  0.0031 -0.1193 -0.0084
    1DIPC   GL2 4432   6.468   2.809   6.433 -0.2051 -0.2587 -0.1759
    1DIPC   C1A 4433   6.340   3.059   5.999  0.0894  0.0032  0.0186
    1DIPC   D2A 4434   6.539   3.335   5.630  0.0508  0.0486  0.1339
    1DIPC   D3A 4435   6.924   3.289   5.961 -0.1934 -0.3678  0.0110
    1DIPC   C4A 4436   6.881   2.803   6.060 -0.0641 -0.1066  0.0826
    1DIPC   C1B 4437   6.694   2.512   6.440 -0.0632  0.0835 -0.1630
    1DIPC   D2B 4438   7.005   2.345   6.442  0.2298  0.2386 -0.0037
    1DIPC   D3B 4439   7.264   2.715   6.359 -0.1501  0.2376  0.0898
    1DIPC   C4B 4440   7.426   2.759   5.887 -0.1438  0.0918 -0.3769
    1DIPC   NC3 4441  26.402  14.191   5.464 -0.0584 -0.1598  0.2684
    1DIPC   PO4 4442  26.810  14.015   5.466  0.0019 -0.4795 -0.0134
    1DIPC   GL1 4443  26.787  14.010   5.029  0.1289 -0.0359  0.3126
    1DIPC   GL2 4444  27.140  14.042   4.988  0.0396  0.0168  0.1127
    1DIPC   C1A 4445  26.682  14.018   4.600  0.0590 -0.1178  0.0814
    1DIPC   D2A 4446  26.824  13.978   4.259  0.0238  0.2768  0.4718
    1DIPC   D3A 4447  26.806  13.565   4.281 -0.0215 -0.0282  0.0648
    1DIPC   C4A 4448  26.800  13.320   4.039  0.3978 -0.2164  0.0199
    1DIPC   C1B 4449  27.282  14.365   4.641 -0.0177  0.2838 -0.0957
    1DIPC   D2B 4450  27.524  14.599   4.372 -0.0517 -0.0132 -0.0765
    1DIPC   D3B 4451  27.578  14.419   3.981 -0.1377  0.0211  0.2444
    1DIPC   C4B 4452  27.618  13.984   4.107 -0.1160  0.2462 -0.0043
    1DIPC   NC3 4453  14.218  28.611   7.306 -0.1338 -0.1445 -0.3216
    1DIPC   PO4 4454  14.236  29.008   7.510  0.1730 -0.0974 -0.0919
    1DIPC   GL1 4455  14.377  29.077   7.262  0.0461 -0.1751 -0.2087
    1DIPC   GL2 4456  14.358  28.923   6.939 -0.1259  0.3286  0.1478
    1DIPC   C1A 4457  14.778  29.134   7.019 -0.3133  0.1641  0.0924
    1DIPC   D2A 4458  14.836  28.651   7.149  0.0594 -0.1869  0.0292
    1DIPC   D3A 4459  14.523  28.321   6.922  0.0353 -0.3424  0.0724
    1DIPC   C4A 4460  14.292  28.037   6.632 -0.0094 -0.0652 -0.1341
    1DIPC   C1B 4461  14.328  29.140   6.549 -0.0787 -0.1408 -0.1050
    1DIPC   D2B 4462  14.254  28.952   6.047 -0.2393 -0.3408 -0.0898
    1DIPC   D3B 4463  14.429  29.421   5.943 -0.2425 -0.1513  0.0675
    1DIPC   C4B 4464  14.401  29.873   6.098 -0.2938 -0.1648  0.0237
    1DIPC   NC3 4465  21.992   2.168   6.237  0.1568  0.0110 -0.1819
    1DIPC   PO4 4466  22.391   2.419   6.096 -0.0331 -0.0243  0.1700
    1DIPC   GL1 4467  22.218   2.318   5.685 -0.1902 -0.1698  0.1927
    1DIPC   GL2 4468  21.965   2.128   5.722  0.0302 -0.2602 -0.1692
    1DIPC   C1A 4469  22.198   2.139   5.299  0.0424 -0.4337 -0.3822
    1DIPC   D2A 4470  22.037   2.176   4.795 -0.1697 -0.1211  0.0911
    1DIPC   D3A 4471  22.085   1.806   4.526 -0.2326 -0.2193 -0.1161
    1DIPC   C4A 4472  22.280   1.496   4.630 -0.0046 -0.1100 -0.0648
    1DIPC   C1B 4473  21.702   2.417   5.610  0.3747  0.2472  0.2190
    1DIPC   D2B 4474  21.601   2.857   5.562 -0.1167 -0.1935 -0.1623
    1DIPC   D3B 4475  21.917   2.714   5.283  0.1426 -0.0414 -0.1211
    1DIPC   C4B 4476  22.235   3.074   5.359 -0.0081  0.0089 -0.1716
    1DIPC   NC3 4477   9.240  25.525   6.527 -0.0291 -0.3106 -0.1504
    1DIPC   PO4 4478   9.440  25.511   6.977 -0.1817 -0.1685  0.0185
    1DIPC   GL1 4479   9.708  25.386   6.577  0.0945 -0.1478 -0.1564
    1DIPC   GL2 4480   9.791  25.608   6.433  0.1717 -0.3273 -0.1141
    1DIPC   C1A 4481   9.883  25.148   6.192  0.1414  0.0171  0.1178
    1DIPC   D2A 4482  10.145  25.217   5.890 -0.0927  0.2948  0.3382
    1DIPC   D3A 4483  10.285  24.765   5.835 -0.0780  0.1245  0.2006
    1DIPC   C4A 4484  10.441  24.502   5.460  0.0735  0.0398  0.0516
    1DIPC   C1B 4485   9.859  25.676   6.046  0.0349 -0.0851  0.1074
    1DIPC   D2B 4486   9.874  25.606   5.690  0.0460  0.1485  0.0327
    1DIPC   D3B 4487  10.301  25.627   5.480 -0.3054 -0.0498 -0.0984
    1DIPC   C4B 4488  10.479  25.923   5.160  0.0047 -0.0647 -0.0334
    1DIPC   NC3 4489  23.047   4.872   6.292 -0.1479 -0.1041 -0.1888
    1DIPC   PO4 4490  22.567   5.125   6.308  0.0434  0.0727  0.2841
    1DIPC   GL1 4491  22.492   5.310   5.804 -0.1419  0.1189 -0.2753
    1DIPC   GL2 4492  22.709   5.542   5.713  0.0500  0.1611  0.2329
    1DIPC   C1A 4493  22.197   5.413   5.541  0.3145  0.0266  0.5893
    1DIPC   D2A 4494  21.790   5.714   5.477 -0.1242  0.0512 -0.2302
    1DIPC   D3A 4495  21.745   5.431   5.142  0.0012 -0.2098  0.3514
    1DIPC   C4A 4496  22.121   5.239   5.078 -0.0129 -0.1092 -0.1250
    1DIPC   C1B 4497  22.369   5.892   5.639 -0.0571  0.0069  0.0953
    1DIPC   D2B 4498  22.121   6.196   5.666 -0.0333  0.2826  0.3139
    1DIPC   D3B 4499  22.284   6.369   5.209 -0.0039  0.2426 -0.2323
    1DIPC   C4B 4500  22.294   6.197   4.788  0.0145  0.1556 -0.1486
    1DIPC   NC3 4501  24.942  22.187   6.797  0.1629 -0.0554 -0.2490
    1DIPC   PO4 4502  25.209  21.921   6.568  0.0658  0.1983  0.1756
    1DIPC   GL1 4503  25.038  22.086   6.225  0.0493  0.0358 -0.0284
    1DIPC   GL2 4504  24.895  21.775   6.052  0.0643  0.2246  0.0908
    1DIPC   C1A 4505  24.806  22.260   5.943  0.3233 -0.0192  0.1783
    1DIPC   D2A 4506  24.433  22.436   5.778  0.2712  0.2802 -0.2231
    1DIPC   D3A 4507  24.130  22.546   6.157 -0.2238  0.0676  0.0760
    1DIPC   C4A 4508  23.754  22.409   6.311  0.2793  0.2200  0.1283
    1DIPC   C1B 4509  24.568  21.787   5.767 -0.3651  0.0165  0.2356
    1DIPC   D2B 4510  24.448  21.766   5.382  0.0795 -0.2146  0.0510
    1DIPC   D3B 4511  24.579  22.259   5.371  0.1580 -0.0834  0.0729
    1DIPC   C4B 4512  24.510  22.664   5.072  0.0034  0.1360 -0.1233
    1DIPC   NC3 4513   6.880  26.171   6.943  0.0977  0.2965  0.1975
    1DIPC   PO4 4514   6.803  25.799   6.757  0.2921  0.0403  0.2887
    1DIPC   GL1 4515   6.792  25.805   6.284  0.1769 -0.1085  0.2247
    1DIPC   GL2 4516   6.462  25.945   6.057  0.1169 -0.1016 -0.1108
    1DIPC   C1A 4517   6.903  25.755   5.812  0.4610  0.2724 -0.1785
    1DIPC   D2A 4518   6.765  25.493   5.393  0.0374  0.0476 -0.0079
    1DIPC   D3A 4519   7.113  25.398   5.092  0.3568  0.3220 -0.1669
    1DIPC   C4A 4520   7.014  25.025   4.813 -0.1731  0.0379  0.0603
    1DIPC   C1B 4521   6.434  25.492   5.908 -0.4738  0.2169  0.1792
    1DIPC   D2B 4522   6.441  25.111   6.084 -0.0382 -0.0715 -0.2796
    1DIPC   D3B 4523   6.105  24.884   5.953  0.1215  0.0502  0.0746
    1DIPC   C4B 4524   5.726  24.981   5.858  0.1984 -0.0747 -0.2325
    1DIPC   NC3 4525  23.043  18.673   6.827 -0.1916  0.0397 -0.0916
    1DIPC   PO4 4526  22.959  19.032   6.768  0.0000  0.2189  0.2002
    1DIPC   GL1 4527  22.705  19.030   6.425 -0.1663  0.1700 -0.1319
    1DIPC   GL2 4528  22.447  19.347   6.293 -0.0797 -0.2615  0.2048
    1DIPC   C1A 4529  22.827  18.933   5.930 -0.0739  0.3682  0.1279
    1DIPC   D2A 4530  22.966  18.701   5.460 -0.0209  0.5584 -0.2138
    1DIPC   D3A 4531  23.148  19.058   5.497  0.2167  0.4074 -0.1580
    1DIPC   C4A 4532  23.028  19.386   5.181 -0.0009  0.2997 -0.0911
    1DIPC   C1B 4533  22.436  19.242   5.957 -0.0180  0.0591  0.2746
    1DIPC   D2B 4534  22.175  19.080   5.553 -0.1225  0.0719 -0.2782
    1DIPC   D3B 4535  22.019  19.513   5.581  0.1753  0.3481 -0.1792
    1DIPC   C4B 4536  21.649  19.511   5.311  0.1239  0.2251 -0.2200
    1DIPC   NC3 4537  13.967   3.837   7.376  0.2859  0.0844  0.0372
    1DIPC   PO4 4538  13.732   3.648   7.057 -0.0618  0.0107 -0.2241
    1DIPC   GL1 4539  13.621   3.912   6.773 -0.0355  0.1012 -0.1924
    1DIPC   GL2 4540  13.668   4.002   6.443 -0.2869 -0.1476  0.1362
    1DIPC   C1A 4541  13.129   4.033   6.671  0.4082 -0.2673  0.0795
    1DIPC   D2A 4542  12.823   4.287   6.667 -0.1820  0.0027  0.2364
    1DIPC   D3A 4543  12.444   4.356   6.579  0.3294  0.1226 -0.0355
    1DIPC   C4A 4544  12.069   4.094   6.825  0.0828  0.1466  0.1839
    1DIPC   C1B 4545  13.305   4.077   6.203  0.2093  0.1617 -0.0467
    1DIPC   D2B 4546  12.914   3.798   6.287 -0.0986  0.0620 -0.0906
    1DIPC   D3B 4547  13.264   3.541   6.425  0.1268  0.0341  0.0595
    1DIPC   C4B 4548  13.704   3.539   6.229 -0.0513  0.2039 -0.4183
    1DIPC   NC3 4549   1.643  15.812   6.018  0.3193  0.1657  0.1116
    1DIPC   PO4 4550   1.273  16.056   6.152 -0.4611 -0.1434  0.3250
    1DIPC   GL1 4551   1.244  16.100   5.801  0.3053  0.3162 -0.0369
    1DIPC   GL2 4552   1.272  15.751   5.670  0.0423  0.2629 -0.0912
    1DIPC   C1A 4553   1.019  16.404   5.489  0.1185  0.3011  0.0303
    1DIPC   D2A 4554   1.124  16.611   5.129 -0.1282 -0.0519  0.2225
    1DIPC   D3A 4555   0.962  16.653   4.797  0.4195 -0.2300 -0.1852
    1DIPC   C4A 4556   0.667  16.275   4.601 -0.0566 -0.0401 -0.2025
    1DIPC   C1B 4557   1.069  15.881   5.335 -0.0803 -0.1195 -0.0701
    1DIPC   D2B 4558   0.873  16.147   5.060 -0.0056 -0.2357 -0.0494
    1DIPC   D3B 4559   0.696  15.742   4.972 -0.1486 -0.1413 -0.0812
    1DIPC   C4B 4560   0.861  15.321   5.070  0.1986  0.0748 -0.0251
    1DIPC   NC3 4561  10.701   4.783   7.764  0.0264 -0.1091  0.0984
    1DIPC   PO4 4562  10.757   4.607   7.385  0.0106 -0.0418  0.0112
    1DIPC   GL1 4563  10.759   4.596   6.889  0.2483 -0.0646 -0.2285
    1DIPC   GL2 4564  10.504   4.434   6.877  0.0829  0.1203  0.1869
    1DIPC   C1A 4565  11.050   4.738   6.476 -0.2658  0.1250 -0.2329
    1DIPC   D2A 4566  11.115   4.414   6.194 -0.1602 -0.1394  0.0736
    1DIPC   D3A 4567  11.171   4.702   5.818  0.2179  0.2307  0.5577
    1DIPC   C4A 4568  11.512   4.710   5.561  0.0243  0.1689  0.0605
    1DIPC   C1B 4569  10.628   4.470   6.420 -0.0203  0.2035  0.1798
    1DIPC   D2B 4570  10.729   4.457   5.876 -0.0791 -0.1889 -0.2302
    1DIPC   D3B 4571  10.871   4.023   5.881  0.1243  0.1204  0.0338
    1DIPC   C4B 4572  11.194   3.780   5.890 -0.0353  0.0817  0.2780
    1DIPC   NC3 4573  27.728  18.319   5.943 -0.1444 -0.0219  0.1930
    1DIPC   PO4 4574  27.344  18.264   5.839  0.2174 -0.0413 -0.1729
    1DIPC   GL1 4575  26.919  18.440   5.560 -0.0397 -0.1069 -0.2372
    1DIPC   GL2 4576  26.624  18.593   5.619  0.1020  0.2496  0.1107
    1DIPC   C1A 4577  26.899  18.511   5.088 -0.0812  0.2765 -0.4336
    1DIPC   D2A 4578  26.947  18.520   4.593  0.1845 -0.1649 -0.1657
    1DIPC   D3A 4579  27.447  18.363   4.426  0.0348 -0.0855 -0.0381
    1DIPC   C4A 4580  27.443  17.957   4.458 -0.0588 -0.0734  0.0845
    1DIPC   C1B 4581  26.529  18.803   5.257 -0.0692  0.1169  0.4685
    1DIPC   D2B 4582  26.349  19.074   5.000  0.2455  0.1343  0.0383
    1DIPC   D3B 4583  26.152  19.206   5.346 -0.3849 -0.1510 -0.2157
    1DIPC   C4B 4584  26.155  18.956   5.689  0.1482  0.0313  0.2082
    1DIPC   NC3 4585  13.546  25.903   7.604 -0.3690 -0.3648  0.0334
    1DIPC   PO4 4586  13.241  25.702   7.496  0.1184  0.0579  0.2333
    1DIPC   GL1 4587  13.344  25.731   7.118  0.1750  0.0099  0.0083
    1DIPC   GL2 4588  13.638  25.969   7.140 -0.2439  0.0366  0.3112
    1DIPC   C1A 4589  13.322  25.515   6.667  0.1765  0.1700  0.0050
    1DIPC   D2A 4590  13.168  25.195   6.463  0.0655 -0.0905  0.1617
    1DIPC   D3A 4591  12.868  25.191   6.140 -0.1048  0.1777 -0.1350
    1DIPC   C4A 4592  12.997  25.109   5.727  0.2694  0.1529 -0.3199
    1DIPC   C1B 4593  13.729  26.125   6.756  0.1542  0.2231  0.0616
    1DIPC   D2B 4594  13.869  26.446   6.534 -0.0405  0.3633  0.1255
    1DIPC   D3B 4595  13.511  26.395   6.371  0.0323 -0.1556  0.0095
    1DIPC   C4B 4596  13.426  26.407   6.049 -0.1896  0.3344 -0.0076
    1DIPC   NC3 4597   4.292  20.209   6.214 -0.1937  0.1071  0.0112
    1DIPC   PO4 4598   4.126  19.792   6.345 -0.0928 -0.4059 -0.0498
    1DIPC   GL1 4599   3.915  19.904   5.897 -0.5515 -0.1726  0.2033
    1DIPC   GL2 4600   4.118  20.189   5.728 -0.3116  0.0579 -0.2415
    1DIPC   C1A 4601   3.671  20.146   5.532 -0.0232  0.3293  0.3132
    1DIPC   D2A 4602   3.231  20.253   5.580  0.0752  0.0397  0.1323
    1DIPC   D3A 4603   3.387  20.493   5.242  0.1152  0.2458 -0.1740
    1DIPC   C4A 4604   3.245  20.585   4.825  0.1923 -0.4188 -0.0110
    1DIPC   C1B 4605   4.191  20.107   5.356 -0.0385 -0.3940  0.0457
    1DIPC   D2B 4606   4.373  19.760   5.227  0.3863  0.2520  0.1661
    1DIPC   D3B 4607   4.400  20.044   4.858 -0.2291 -0.1199  0.1267
    1DIPC   C4B 4608   4.084  19.889   4.622 -0.2126 -0.0589 -0.4876
    1DIPC   NC3 4609  25.014  17.747   6.385 -0.2997  0.1486  0.1656
    1DIPC   PO4 4610  25.095  17.319   6.337 -0.0928  0.0513 -0.0781
    1DIPC   GL1 4611  25.054  17.006   6.051  0.1916 -0.2124 -0.0428
    1DIPC   GL2 4612  25.357  16.894   5.814 -0.0728  0.1602  0.0508
    1DIPC   C1A 4613  24.713  16.869   5.685 -0.0714  0.1910 -0.1413
    1DIPC   D2A 4614  24.618  16.667   5.195 -0.0875  0.0696 -0.0104
    1DIPC   D3A 4615  24.563  16.282   5.438  0.2094  0.1927  0.0378
    1DIPC   C4A 4616  24.176  16.104   5.387 -0.4971  0.3132 -0.1878
    1DIPC   C1B 4617  25.137  16.862   5.368 -0.1888  0.1991  0.0022
    1DIPC   D2B 4618  25.035  16.752   4.914 -0.0569  0.0488  0.0224
    1DIPC   D3B 4619  24.939  17.104   4.693  0.1902 -0.2451  0.0034
    1DIPC   C4B 4620  24.541  17.389   4.526  0.1148  0.0861 -0.0377
    1DIPC   NC3 4621   7.724   5.472   7.517  0.0501 -0.0604  0.0306
    1DIPC   PO4 4622   7.712   5.221   7.122 -0.0560 -0.2112  0.3815
    1DIPC   GL1 4623   7.645   4.964   6.786  0.2570  0.1127  0.2265
    1DIPC   GL2 4624   7.295   5.021   6.693 -0.0883 -0.3635 -0.2348
    1DIPC   C1A 4625   7.695   5.143   6.421  0.0817 -0.3997 -0.1148
    1DIPC   D2A 4626   7.690   5.204   6.035  0.0322 -0.5828  0.1558
    1DIPC   D3A 4627   7.663   5.694   5.916 -0.4498  0.4272  0.0824
    1DIPC   C4A 4628   8.049   5.811   6.093  0.0633  0.4208 -0.1742
    1DIPC   C1B 4629   7.127   5.058   6.266  0.0789  0.0672 -0.3506
    1DIPC   D2B 4630   7.285   5.355   5.809  0.1754 -0.0270 -0.0054
    1DIPC   D3B 4631   7.550   5.155   5.530  0.1223 -0.0443 -0.0364
    1DIPC   C4B 4632   7.618   5.278   5.061  0.0503  0.0685  0.1770
    1DIPC   NC3 4633  20.262   2.965   6.657  0.0245  0.1942  0.1042
    1DIPC   PO4 4634  19.824   2.981   6.416 -0.0290 -0.1612 -0.1741
    1DIPC   GL1 4635  19.816   2.956   6.041  0.1947  0.3156 -0.2431
    1DIPC   GL2 4636  19.875   3.177   5.814 -0.0251 -0.2069 -0.2131
    1DIPC   C1A 4637  19.709   2.553   5.760  0.0383 -0.1604 -0.1118
    1DIPC   D2A 4638  19.656   2.126   5.886  0.0873  0.0956 -0.2487
    1DIPC   D3A 4639  19.744   1.785   5.557 -0.1524 -0.2511 -0.1455
    1DIPC   C4A 4640  19.818   1.874   5.257 -0.1096  0.2326 -0.0648
    1DIPC   C1B 4641  19.984   3.471   5.526 -0.1730  0.1849  0.0631
    1DIPC   D2B 4642  20.339   3.468   5.131 -0.1615 -0.0580 -0.3494
    1DIPC   D3B 4643  20.316   3.712   4.818  0.0087  0.1025 -0.0661
    1DIPC   C4B 4644  20.375   4.132   4.910  0.1052 -0.0060 -0.0929
    1DIPC   NC3 4645   5.203  18.548   5.605  0.3747  0.2127  0.1333
    1DIPC   PO4 4646   5.571  18.399   5.589 -0.1211 -0.0540  0.0777
    1DIPC   GL1 4647   5.612  18.407   5.125  0.2161 -0.0716  0.1359
    1DIPC   GL2 4648   5.869  18.333   5.064 -0.0468 -0.0249  0.0246
    1DIPC   C1A 4649   5.524  18.530   4.782  0.2039  0.1783 -0.4395
    1DIPC   D2A 4650   5.460  18.975   4.624 -0.0729  0.2798  0.2446
    1DIPC   D3A 4651   5.471  19.285   4.433  0.3707 -0.1059 -0.1997
    1DIPC   C4A 4652   5.593  19.491   4.058  0.0054 -0.0260  0.0415
    1DIPC   C1B 4653   6.051  18.565   4.786  0.1291 -0.2285 -0.2255
    1DIPC   D2B 4654   6.023  19.061   4.593 -0.0256  0.2632  0.2156
    1DIPC   D3B 4655   5.909  19.434   4.392 -0.0192  0.1409 -0.2684
    1DIPC   C4B 4656   6.146  19.439   4.013  0.2744  0.0742 -0.0097
    1DIPC   NC3 4657  19.983  21.089   7.184 -0.0709  0.0271  0.0206
    1DIPC   PO4 4658  20.117  20.633   7.268 -0.1537  0.3873 -0.2227
    1DIPC   GL1 4659  20.269  20.443   6.812  0.3090 -0.3889 -0.4411
    1DIPC   GL2 4660  20.226  20.124   6.760 -0.0414  0.0463 -0.0535
    1DIPC   C1A 4661  20.197  20.557   6.452  0.1355 -0.0100 -0.0103
    1DIPC   D2A 4662  20.124  20.951   6.234 -0.1494  0.3085 -0.1917
    1DIPC   D3A 4663  20.203  21.093   5.868 -0.1251  0.1800 -0.2030
    1DIPC   C4A 4664  20.535  20.955   5.604 -0.0681  0.0556 -0.2910
    1DIPC   C1B 4665  20.166  20.050   6.351  0.0408  0.1036 -0.1323
    1DIPC   D2B 4666  20.181  20.085   5.931  0.1272 -0.2320 -0.0435
    1DIPC   D3B 4667  20.357  20.493   5.969 -0.0197 -0.2524 -0.1126
    1DIPC   C4B 4668  20.111  20.659   5.694  0.2400  0.1414 -0.1483
    1DIPC   NC3 4669  25.588   2.559   6.225 -0.0303 -0.0454 -0.2180
    1DIPC   PO4 4670  25.485   2.161   6.050  0.3489 -0.3494 -0.0471
    1DIPC   GL1 4671  25.770   2.279   5.749  0.1903  0.3789  0.1174
    1DIPC   GL2 4672  25.792   2.554   5.616  0.0133 -0.0429  0.2639
    1DIPC   C1A 4673  25.946   2.228   5.294 -0.2138 -0.1656  0.2102
    1DIPC   D2A 4674  26.128   2.004   4.852 -0.3204 -0.0944  0.1596
    1DIPC   D3A 4675  26.317   2.390   4.993 -0.0435 -0.0093  0.0145
    1DIPC   C4A 4676  26.700   2.604   4.956 -0.0494  0.1329  0.1009
    1DIPC   C1B 4677  26.054   2.751   5.298 -0.1355  0.0040 -0.0341
    1DIPC   D2B 4678  25.947   2.839   4.867  0.2060 -0.1252  0.1406
    1DIPC   D3B 4679  25.817   2.445   4.801 -0.1436  0.1065 -0.0847
    1DIPC   C4B 4680  25.469   2.346   4.701 -0.1691 -0.0021  0.0612
    1DIPC   NC3 4681  19.260  21.293   6.933  0.2728  0.1744 -0.1319
    1DIPC   PO4 4682  19.474  20.808   6.953  0.0050  0.2447  0.0050
    1DIPC   GL1 4683  19.385  20.939   6.567  0.1279 -0.0508  0.2293
    1DIPC   GL2 4684  19.584  21.083   6.457 -0.2168  0.5411  0.1048
    1DIPC   C1A 4685  19.185  20.657   6.195  0.3022 -0.3556  0.0251
    1DIPC   D2A 4686  19.265  20.243   6.012 -0.0455 -0.0605 -0.1338
    1DIPC   D3A 4687  18.981  20.373   5.648  0.0593  0.0019  0.1394
    1DIPC   C4A 4688  19.075  20.557   5.292  0.1844  0.2582 -0.1319
    1DIPC   C1B 4689  19.694  20.906   5.953  0.0396 -0.1908  0.2160
    1DIPC   D2B 4690  19.419  20.634   5.660  0.0712 -0.2734 -0.1329
    1DIPC   D3B 4691  19.669  20.728   5.411  0.0134  0.0052 -0.1739
    1DIPC   C4B 4692  19.845  20.275   5.426  0.0982 -0.1007  0.2091
    1DIPC   NC3 4693   3.407  13.933   6.302 -0.3037 -0.1015 -0.0442
    1DIPC   PO4 4694   3.406  14.381   6.246  0.0105  0.0274 -0.0054
    1DIPC   GL1 4695   3.732  14.386   5.858 -0.2765 -0.2204  0.0263
    1DIPC   GL2 4696   3.875  14.613   5.766 -0.0220  0.4050  0.2080
    1DIPC   C1A 4697   3.890  14.371   5.340  0.1519 -0.2829 -0.0493
    1DIPC   D2A 4698   3.990  14.193   5.017  0.0064  0.0651 -0.1756
    1DIPC   D3A 4699   3.594  14.160   4.885  0.0543  0.1845 -0.0399
    1DIPC   C4A 4700   3.267  13.856   4.860 -0.2464 -0.1554  0.1974
    1DIPC   C1B 4701   3.656  14.830   5.485 -0.0068 -0.0270  0.2186
    1DIPC   D2B 4702   3.963  15.001   5.174 -0.2263  0.2101  0.2986
    1DIPC   D3B 4703   3.919  14.703   4.819 -0.1140 -0.2477 -0.0241
    1DIPC   C4B 4704   3.723  14.881   4.452 -0.0243  0.1739 -0.2015
    1DIPC   NC3 4705   9.716   8.401   7.007  0.0144 -0.1633 -0.2683
    1DIPC   PO4 4706   9.449   8.837   6.755  0.1830  0.0856 -0.1212
    1DIPC   GL1 4707   9.558   8.762   6.324 -0.1898 -0.0777 -0.1456
    1DIPC   GL2 4708   9.392   8.448   6.444 -0.0104 -0.1442  0.1989
    1DIPC   C1A 4709   9.841   8.899   5.949 -0.1013  0.0693 -0.0165
    1DIPC   D2A 4710  10.224   8.817   5.704  0.1105  0.0793 -0.1843
    1DIPC   D3A 4711   9.875   8.743   5.396  0.0255  0.3505 -0.1911
    1DIPC   C4A 4712   9.725   8.840   4.936  0.0968 -0.0797 -0.2834
    1DIPC   C1B 4713   9.038   8.457   6.084  0.2117  0.1140  0.0380
    1DIPC   D2B 4714   8.639   8.620   5.744  0.0632 -0.1360 -0.0017
    1DIPC   D3B 4715   8.875   8.821   5.464 -0.0602  0.0682  0.2741
    1DIPC   C4B 4716   9.247   9.072   5.489  0.2072 -0.0872 -0.1506
    1DIPC   NC3 4717  11.455  25.547   6.641  0.1582 -0.1164  0.0973
    1DIPC   PO4 4718  11.239  25.243   6.609 -0.1845 -0.0888 -0.0059
    1DIPC   GL1 4719  11.420  25.287   6.180 -0.1321  0.1166  0.0992
    1DIPC   GL2 4720  11.556  25.648   6.084  0.0751  0.1216  0.4934
    1DIPC   C1A 4721  11.281  25.340   5.767  0.1575 -0.2181  0.2858
    1DIPC   D2A 4722  11.288  25.367   5.291  0.0044  0.0191  0.1051
    1DIPC   D3A 4723  11.358  25.562   4.889  0.0634 -0.1145 -0.3357
    1DIPC   C4A 4724  11.650  25.340   4.622 -0.1994 -0.0063 -0.0999
    1DIPC   C1B 4725  12.000  25.395   5.958 -0.2621 -0.0930  0.1659
    1DIPC   D2B 4726  12.470  25.180   5.909  0.0410 -0.3309 -0.0016
    1DIPC   D3B 4727  12.639  25.270   5.491 -0.0626  0.0469  0.0463
    1DIPC   C4B 4728  12.441  25.388   5.158 -0.1504  0.3664 -0.0436
    1DIPC   NC3 4729  10.250  21.952   6.642 -0.0740  0.0685  0.0402
    1DIPC   PO4 4730  10.272  21.844   6.156 -0.3879  0.0643  0.0975
    1DIPC   GL1 4731  10.503  21.825   5.737  0.0708 -0.4914 -0.2443
    1DIPC   GL2 4732  10.395  21.934   5.443  0.1054 -0.0829 -0.0606
    1DIPC   C1A 4733  10.716  21.489   5.423 -0.1456  0.2343 -0.1371
    1DIPC   D2A 4734  10.946  21.531   4.860 -0.1437 -0.0326 -0.0678
    1DIPC   D3A 4735  10.956  21.168   4.578  0.0502 -0.0929  0.1069
    1DIPC   C4A 4736  11.046  20.769   4.719 -0.0482 -0.0230  0.1111
    1DIPC   C1B 4737  10.470  21.602   5.040 -0.1648  0.0652  0.1569
    1DIPC   D2B 4738  10.351  21.327   4.657  0.0740 -0.0565 -0.0562
    1DIPC   D3B 4739  10.526  20.911   4.680 -0.1945 -0.0906  0.0251
    1DIPC   C4B 4740  10.245  20.761   4.478 -0.0260  0.2972 -0.0382
    1DIPC   NC3 4741   1.974   4.550   5.875 -0.0933  0.0791  0.1896
    1DIPC   PO4 4742   1.559   4.761   5.718 -0.1246  0.1145  0.0983
    1DIPC   GL1 4743   1.780   4.622   5.409  0.1683 -0.0312  0.0210
    1DIPC   GL2 4744   1.775   4.314   5.505  0.1286 -0.2921 -0.1648
    1DIPC   C1A 4745   2.212   4.452   5.356 -0.0912 -0.0241  0.0984
    1DIPC   D2A 4746   2.648   4.599   5.122 -0.2726 -0.1972 -0.1883
    1DIPC   D3A 4747   2.778   4.376   5.487  0.0592  0.1811 -0.3667
    1DIPC   C4A 4748   2.500   4.075   5.679 -0.1483  0.0228  0.2368
    1DIPC   C1B 4749   2.016   4.042   5.059  0.1941  0.1000  0.0198
    1DIPC   D2B 4750   2.003   3.919   4.585  0.0392  0.4785  0.3069
    1DIPC   D3B 4751   2.149   4.289   4.295  0.1414 -0.0212  0.1899
    1DIPC   C4B 4752   1.954   4.517   3.879  0.2985 -0.0880 -0.2115
    1DIPC   NC3 4753  17.793   0.212   7.137  0.1458 -0.1335 -0.0394
    1DIPC   PO4 4754  18.026  -0.104   6.968 -0.2501 -0.2816  0.0341
    1DIPC   GL1 4755  18.120   0.333   6.793 -0.1963  0.0322 -0.0933
    1DIPC   GL2 4756  18.402   0.581   6.926  0.0064 -0.1154  0.0458
    1DIPC   C1A 4757  17.972   0.578   6.449  0.1456 -0.0567 -0.0574
    1DIPC   D2A 4758  18.162   0.697   6.021  0.0037 -0.0772  0.0269
    1DIPC   D3A 4759  17.791   0.568   5.714  0.0866  0.0403 -0.2990
    1DIPC   C4A 4760  17.389   0.512   5.637 -0.1663 -0.0702  0.2033
    1DIPC   C1B 4761  18.597   0.467   6.584  0.5046 -0.0415  0.0266
    1DIPC   D2B 4762  18.547   0.369   6.172 -0.0952  0.2090 -0.0127
    1DIPC   D3B 4763  18.271   0.224   6.265  0.2197  0.2764  0.1304
    1DIPC   C4B 4764  17.971   0.214   6.027 -0.1552 -0.1038  0.0358
    1DIPC   NC3 4765   5.419  19.483   5.846 -0.0189  0.2773  0.1756
    1DIPC   PO4 4766   5.587  19.887   6.045 -0.1010  0.2036 -0.0066
    1DIPC   GL1 4767   5.630  19.959   5.617 -0.1826  0.1875  0.2165
    1DIPC   GL2 4768   5.388  19.779   5.302  0.1200  0.0746  0.2117
    1DIPC   C1A 4769   5.688  20.152   5.191  0.0295 -0.2074 -0.2224
    1DIPC   D2A 4770   5.811  20.324   4.836 -0.4147 -0.1587  0.2346
    1DIPC   D3A 4771   5.566  20.452   4.509  0.2380 -0.2985  0.0068
    1DIPC   C4A 4772   5.191  20.243   4.261  0.0428 -0.3069 -0.0434
    1DIPC   C1B 4773   5.752  19.685   5.076 -0.0434  0.0998  0.1399
    1DIPC   D2B 4774   5.859  19.817   4.728  0.2139  0.3751  0.0183
    1DIPC   D3B 4775   6.265  19.966   4.887  0.0382 -0.1790  0.1458
    1DIPC   C4B 4776   6.650  19.996   4.634  0.1694  0.3516 -0.1597
    1DIPC   NC3 4777  11.020  26.389   7.475  0.0870 -0.1432  0.3437
    1DIPC   PO4 4778  11.268  26.707   7.204 -0.1169 -0.0387  0.0795
    1DIPC   GL1 4779  11.483  26.930   6.856  0.0766 -0.1930  0.0105
    1DIPC   GL2 4780  11.810  26.992   6.886 -0.2896  0.0658  0.1435
    1DIPC   C1A 4781  11.410  27.367   6.638  0.3287  0.0963 -0.1035
    1DIPC   D2A 4782  11.615  27.682   6.334 -0.0470  0.0083 -0.2648
    1DIPC   D3A 4783  11.815  27.453   6.087 -0.1246  0.0724 -0.0334
    1DIPC   C4A 4784  11.748  27.355   5.664 -0.1418  0.1799  0.2676
    1DIPC   C1B 4785  11.867  27.449   6.958  0.1622  0.0487  0.2487
    1DIPC   D2B 4786  11.804  27.787   7.200 -0.0213 -0.0620 -0.0660
    1DIPC   D3B 4787  12.201  27.863   7.147 -0.1357 -0.1485 -0.0055
    1DIPC   C4B 4788  12.520  27.714   6.950 -0.1684  0.0472  0.1030
    1DIPC   NC3 4789  28.569   6.886   6.119 -0.2399  0.1331  0.1080
    1DIPC   PO4 4790  28.368   7.225   6.308  0.3039 -0.0769  0.0339
    1DIPC   GL1 4791  28.297   7.291   5.845 -0.2020 -0.1838 -0.2377
    1DIPC   GL2 4792  28.013   7.509   5.634  0.0778 -0.0060  0.0489
    1DIPC   C1A 4793  28.537   7.250   5.554 -0.1877 -0.4097  0.1381
    1DIPC   D2A 4794  28.705   7.336   5.140  0.1739 -0.5157  0.0687
    1DIPC   D3A 4795  28.844   7.424   4.714 -0.0361 -0.0842 -0.2557
    1DIPC   C4A 4796  28.849   7.753   4.362  0.1195  0.0921  0.2213
    1DIPC   C1B 4797  28.106   7.531   5.217  0.0778  0.0411 -0.0347
    1DIPC   D2B 4798  28.001   7.681   4.778  0.2223 -0.1710  0.0121
    1DIPC   D3B 4799  28.393   7.803   4.527 -0.0130  0.1724 -0.0869
    1DIPC   C4B 4800  28.482   8.180   4.489 -0.2193 -0.1310 -0.2180
    1DIPC   NC3 4801   3.068  26.283   6.435  0.0642 -0.1615  0.1158
    1DIPC   PO4 4802   2.781  25.968   6.421  0.0470  0.0813  0.0580
    1DIPC   GL1 4803   2.897  25.992   6.051  0.1202  0.1837 -0.2272
    1DIPC   GL2 4804   3.176  26.163   5.946  0.3120  0.0906  0.0502
    1DIPC   C1A 4805   2.913  25.699   5.714 -0.1249  0.2283  0.3208
    1DIPC   D2A 4806   3.172  25.365   5.722  0.0213  0.1095  0.2220
    1DIPC   D3A 4807   3.138  25.399   5.285  0.2429  0.1688 -0.0186
    1DIPC   C4A 4808   2.813  25.634   5.183  0.2077  0.5032 -0.0758
    1DIPC   C1B 4809   2.901  26.199   5.643  0.4076 -0.0904 -0.1766
    1DIPC   D2B 4810   2.754  26.162   5.216 -0.1299  0.1421  0.1989
    1DIPC   D3B 4811   2.319  26.044   5.061 -0.0890  0.0041 -0.3046
    1DIPC   C4B 4812   2.216  25.628   5.172  0.1334 -0.1167  0.1544
    1DIPC   NC3 4813  27.111  27.467   6.506 -0.1348  0.0802  0.1339
    1DIPC   PO4 4814  26.848  27.084   6.691  0.1000 -0.1501  0.0437
    1DIPC   GL1 4815  27.010  26.850   6.275 -0.0638 -0.0782 -0.3044
    1DIPC   GL2 4816  26.889  26.707   5.975 -0.1663 -0.4165  0.1434
    1DIPC   C1A 4817  27.402  26.679   6.060 -0.1965  0.0193 -0.1207
    1DIPC   D2A 4818  27.741  26.787   6.089 -0.0881 -0.0502 -0.2615
    1DIPC   D3A 4819  27.740  26.887   5.630 -0.0849 -0.0522 -0.0681
    1DIPC   C4A 4820  27.463  26.654   5.285 -0.0044  0.2718 -0.1028
    1DIPC   C1B 4821  26.746  27.025   5.633  0.1290 -0.1397 -0.0074
    1DIPC   D2B 4822  26.385  27.298   5.371  0.1907 -0.2025 -0.2117
    1DIPC   D3B 4823  26.247  26.954   5.121  0.3203 -0.0255 -0.0529
    1DIPC   C4B 4824  26.000  26.995   4.734  0.3502  0.1781  0.1926
    1DIPC   NC3 4825   3.821  15.863   6.270 -0.3498 -0.4766  0.1842
    1DIPC   PO4 4826   4.013  15.428   6.455 -0.0151 -0.0124  0.1099
    1DIPC   GL1 4827   4.078  15.330   6.018 -0.0490  0.1894  0.2253
    1DIPC   GL2 4828   3.798  15.112   5.853  0.0024  0.0838 -0.0624
    1DIPC   C1A 4829   4.235  15.287   5.538  0.0304 -0.2033 -0.0438
    1DIPC   D2A 4830   4.463  15.454   5.210  0.0251  0.0555 -0.1525
    1DIPC   D3A 4831   4.246  15.560   4.798  0.3329 -0.0875 -0.2353
    1DIPC   C4A 4832   4.008  15.179   4.719 -0.1430  0.1001  0.0060
    1DIPC   C1B 4833   3.470  15.351   5.600  0.2273 -0.1381 -0.0028
    1DIPC   D2B 4834   3.045  15.542   5.465  0.2217  0.0285 -0.1267
    1DIPC   D3B 4835   3.393  15.665   5.182  0.1872  0.0317 -0.2628
    1DIPC   C4B 4836   3.690  16.022   5.403  0.5626  0.0426  0.0534
    1DIPC   NC3 4837  24.539   8.110   6.155 -0.2597  0.1343  0.1922
    1DIPC   PO4 4838  24.941   8.206   6.165  0.0897  0.1245  0.2731
    1DIPC   GL1 4839  25.010   8.404   5.776 -0.4821  0.0199 -0.1709
    1DIPC   GL2 4840  25.331   8.351   5.570 -0.3348  0.1804  0.2490
    1DIPC   C1A 4841  24.865   8.636   5.423 -0.1159 -0.0431  0.4077
    1DIPC   D2A 4842  24.809   8.936   5.167 -0.0477  0.1334  0.0883
    1DIPC   D3A 4843  24.435   8.879   5.317  0.2070 -0.0317 -0.1165
    1DIPC   C4A 4844  24.032   9.000   4.967 -0.3740 -0.0508  0.0332
    1DIPC   C1B 4845  25.364   8.650   5.136 -0.1676  0.1841  0.0171
    1DIPC   D2B 4846  25.549   8.620   4.845 -0.3856 -0.2072  0.1959
    1DIPC   D3B 4847  25.341   8.694   4.450 -0.0059  0.1193  0.1028
    1DIPC   C4B 4848  25.193   8.542   4.032  0.2073  0.0226  0.0911
    1DIPC   NC3 4849  15.874  25.983   6.863 -0.1764  0.0375  0.3402
    1DIPC   PO4 4850  15.485  25.828   6.987 -0.0608 -0.1580 -0.0185
    1DIPC   GL1 4851  15.141  25.676   6.748  0.0771  0.0211  0.0727
    1DIPC   GL2 4852  15.003  26.015   6.773  0.2394 -0.1402  0.1485
    1DIPC   C1A 4853  15.021  25.688   6.353  0.0266 -0.3546  0.1958
    1DIPC   D2A 4854  15.012  25.748   5.868  0.4408 -0.5442 -0.0356
    1DIPC   D3A 4855  15.367  25.958   5.676  0.1650  0.2810  0.0625
    1DIPC   C4A 4856  15.371  25.790   5.195  0.0965 -0.2098 -0.0842
    1DIPC   C1B 4857  14.618  26.070   6.504 -0.0363 -0.0782 -0.0204
    1DIPC   D2B 4858  14.339  26.315   6.239 -0.0713 -0.0727 -0.0625
    1DIPC   D3B 4859  14.149  26.537   6.002  0.3090  0.0535  0.0214
    1DIPC   C4B 4860  14.177  26.560   5.501 -0.0651  0.2462 -0.2920
    1DIPC   NC3 4861  28.091  23.307   6.925 -0.1898 -0.2233 -0.0334
    1DIPC   PO4 4862  27.669  23.229   6.778 -0.0886 -0.1335  0.1878
    1DIPC   GL1 4863  27.706  23.242   6.266  0.0283  0.1164 -0.1578
    1DIPC   GL2 4864  27.986  23.435   6.197  0.1064  0.0428 -0.1694
    1DIPC   C1A 4865  27.654  23.214   5.798 -0.0100  0.0821  0.2300
    1DIPC   D2A 4866  27.777  23.207   5.341  0.2244  0.0497 -0.2668
    1DIPC   D3A 4867  28.149  23.225   5.488  0.1759  0.0937 -0.0921
    1DIPC   C4A 4868  28.327  22.824   5.537  0.1976 -0.1359 -0.2301
    1DIPC   C1B 4869  28.285  23.458   5.873 -0.1614 -0.3059 -0.1113
    1DIPC   D2B 4870  28.585  23.864   5.762  0.1036 -0.1151  0.1152
    1DIPC   D3B 4871  28.400  23.832   5.337  0.0760 -0.3394  0.3324
    1DIPC   C4B 4872  28.317  23.468   5.118 -0.1257  0.2766  0.0433
    1DIPC   NC3 4873   1.363  17.635   5.987  0.0344 -0.0630 -0.2635
    1DIPC   PO4 4874   1.453  17.948   5.763 -0.1780 -0.1624  0.0951
    1DIPC   GL1 4875   1.435  17.692   5.366 -0.0028  0.2281 -0.2554
    1DIPC   GL2 4876   1.727  17.821   5.193 -0.1169  0.0423 -0.2444
    1DIPC   C1A 4877   1.340  17.477   4.923  0.0691 -0.0922 -0.1207
    1DIPC   D2A 4878   1.423  17.329   4.517 -0.2770 -0.0120  0.1770
    1DIPC   D3A 4879   1.568  17.007   4.310 -0.1432  0.0076 -0.1819
    1DIPC   C4A 4880   1.916  16.876   4.612 -0.2558  0.0249 -0.1005
    1DIPC   C1B 4881   1.836  17.607   4.943  0.1100  0.1520  0.3956
    1DIPC   D2B 4882   1.748  17.236   5.084 -0.1433  0.0410  0.0435
    1DIPC   D3B 4883   2.191  17.086   5.035 -0.1161  0.2845  0.2079
    1DIPC   C4B 4884   2.153  16.595   4.964  0.0975 -0.0012  0.1982
    1DIPC   NC3 4885  29.339   6.704   6.466 -0.2749 -0.0309  0.1080
    1DIPC   PO4 4886  29.626   6.780   6.106 -0.0531  0.2737 -0.0478
    1DIPC   GL1 4887  29.391   6.682   5.791 -0.0919  0.0307 -0.1056
    1DIPC   GL2 4888  29.182   6.510   5.606  0.0787  0.0759  0.1673
    1DIPC   C1A 4889  29.433   6.880   5.351 -0.2291 -0.4142  0.4343
    1DIPC   D2A 4890  29.378   7.086   4.908 -0.0252 -0.0716 -0.0271
    1DIPC   D3A 4891  29.276   7.064   4.535 -0.1202  0.1366 -0.2962
    1DIPC   C4A 4892  28.843   7.238   4.273 -0.2841 -0.1379  0.0522
    1DIPC   C1B 4893  29.068   6.507   5.160  0.1288 -0.2342 -0.2204
    1DIPC   D2B 4894  29.143   6.662   4.840 -0.0178  0.0412  0.2609
    1DIPC   D3B 4895  28.851   6.807   4.497 -0.2945 -0.1326 -0.0553
    1DIPC   C4B 4896  29.068   6.753   4.091  0.0178  0.1405  0.1380
    1DIPC   NC3 4897  25.124   6.779   5.917  0.0850 -0.0581  0.0256
    1DIPC   PO4 4898  25.561   6.819   6.059  0.1642 -0.0911 -0.3309
    1DIPC   GL1 4899  25.569   6.721   5.616 -0.0131  0.3451  0.0822
    1DIPC   GL2 4900  25.838   6.836   5.468 -0.2834  0.0527  0.0395
    1DIPC   C1A 4901  25.331   6.593   5.181 -0.0808  0.0474  0.1673
    1DIPC   D2A 4902  25.060   6.634   4.863  0.0451 -0.0983  0.0821
    1DIPC   D3A 4903  25.090   6.826   4.459  0.0176  0.0111 -0.1816
    1DIPC   C4A 4904  24.825   7.248   4.319 -0.1834 -0.0033  0.0923
    1DIPC   C1B 4905  25.883   6.872   4.981 -0.0977 -0.0681 -0.2643
    1DIPC   D2B 4906  25.573   6.735   4.719  0.3305 -0.0267 -0.0723
    1DIPC   D3B 4907  25.666   6.882   4.259 -0.3920  0.0964  0.0115
    1DIPC   C4B 4908  25.271   7.120   4.026  0.1124  0.1071  0.1726
    1DIPC   NC3 4909  23.963  27.842   6.628  0.1611  0.0966  0.1052
    1DIPC   PO4 4910  24.289  28.123   6.422  0.2284 -0.0883 -0.3332
    1DIPC   GL1 4911  24.554  27.945   6.139 -0.2288  0.0129 -0.2665
    1DIPC   GL2 4912  24.513  27.718   5.857  0.0439 -0.0331  0.0201
    1DIPC   C1A 4913  24.842  28.288   5.938 -0.1733  0.0044 -0.1686
    1DIPC   D2A 4914  25.006  28.575   5.673 -0.1177  0.0113 -0.0354
    1DIPC   D3A 4915  24.724  28.583   5.404  0.1360  0.0163 -0.0306
    1DIPC   C4A 4916  24.767  28.727   4.960 -0.2382  0.0925  0.1569
    1DIPC   C1B 4917  24.555  27.362   5.502 -0.0669  0.3361 -0.0079
    1DIPC   D2B 4918  24.319  26.932   5.600 -0.4727  0.0762 -0.0707
    1DIPC   D3B 4919  24.657  26.581   5.500 -0.0076  0.3587 -0.2691
    1DIPC   C4B 4920  24.652  26.549   5.039  0.0761 -0.1881 -0.0360
    1DIPC   NC3 4921   8.709   4.082   7.159  0.1063  0.0796 -0.0164
    1DIPC   PO4 4922   8.678   3.753   6.860 -0.1709  0.1532 -0.0996
    1DIPC   GL1 4923   8.774   3.600   6.479  0.0725  0.1815  0.0001
    1DIPC   GL2 4924   8.808   3.864   6.300  0.0606 -0.3121  0.4253
    1DIPC   C1A 4925   9.151   3.351   6.314 -0.0833 -0.1962  0.1102
    1DIPC   D2A 4926   9.276   3.331   5.924 -0.0187  0.0216  0.1962
    1DIPC   D3A 4927   9.121   3.701   5.875 -0.2365  0.0187  0.0219
    1DIPC   C4A 4928   9.256   4.084   5.607  0.0766  0.1251  0.0124
    1DIPC   C1B 4929   8.586   3.696   5.946 -0.0416 -0.1910  0.2034
    1DIPC   D2B 4930   8.290   3.446   5.792  0.1506  0.0531  0.2677
    1DIPC   D3B 4931   8.450   3.706   5.455  0.0146  0.1735  0.0497
    1DIPC   C4B 4932   8.077   3.939   5.350 -0.1958 -0.1129  0.3581
    1DIPC   NC3 4933  18.301   2.826   6.563  0.0780  0.0609  0.3564
    1DIPC   PO4 4934  18.808   2.913   6.546  0.0532  0.0089  0.2536
    1DIPC   GL1 4935  19.016   2.833   6.172  0.0396 -0.0580  0.3483
    1DIPC   GL2 4936  19.002   2.485   6.029 -0.2259 -0.2141 -0.2717
    1DIPC   C1A 4937  19.336   3.043   5.993 -0.1280  0.2232 -0.1331
    1DIPC   D2A 4938  19.418   3.380   5.687  0.2722  0.0006 -0.4124
    1DIPC   D3A 4939  19.370   3.182   5.275  0.1185 -0.1701  0.0521
    1DIPC   C4A 4940  19.553   2.840   5.271 -0.1042 -0.1143  0.1375
    1DIPC   C1B 4941  19.247   2.407   5.666  0.2078  0.0459  0.0020
    1DIPC   D2B 4942  19.584   2.358   5.336  0.0283  0.2508 -0.1480
    1DIPC   D3B 4943  19.454   2.162   4.980 -0.0056 -0.3916  0.1620
    1DIPC   C4B 4944  19.059   1.923   4.766  0.0215  0.2885 -0.0362
    1DIPC   NC3 4945   8.033  20.945   6.797  0.0409 -0.0437  0.2057
    1DIPC   PO4 4946   8.193  21.297   6.633  0.2877 -0.1951 -0.3609
    1DIPC   GL1 4947   8.378  21.232   6.187  0.1392 -0.0890 -0.0121
    1DIPC   GL2 4948   8.186  21.049   6.068 -0.1160  0.0853 -0.3878
    1DIPC   C1A 4949   8.372  21.430   5.777 -0.2650  0.0908  0.1234
    1DIPC   D2A 4950   8.554  21.394   5.392 -0.2635 -0.1444 -0.3748
    1DIPC   D3A 4951   8.147  21.621   5.365 -0.0312 -0.0368  0.1852
    1DIPC   C4A 4952   7.922  21.456   5.692  0.0462 -0.1785 -0.1185
    1DIPC   C1B 4953   8.094  20.935   5.628 -0.0320 -0.2333  0.2385
    1DIPC   D2B 4954   8.071  20.747   5.360 -0.1623  0.1033  0.1130
    1DIPC   D3B 4955   8.361  20.472   5.453  0.0396 -0.1354 -0.2294
    1DIPC   C4B 4956   8.517  20.111   5.474  0.0312  0.1493 -0.0379
    1DIPC   NC3 4957   9.479  27.420   7.001 -0.1303  0.4354 -0.1327
    1DIPC   PO4 4958   9.341  26.999   7.176  0.0291  0.2004 -0.1675
    1DIPC   GL1 4959   9.392  26.952   6.784  0.0335 -0.3708  0.2534
    1DIPC   GL2 4960   9.557  26.938   6.463  0.0347 -0.2227 -0.0320
    1DIPC   C1A 4961   9.095  26.933   6.395  0.1961  0.0964 -0.3766
    1DIPC   D2A 4962   9.088  27.097   6.010 -0.0397  0.0885 -0.1783
    1DIPC   D3A 4963   9.232  27.140   5.631  0.1174  0.0250  0.2193
    1DIPC   C4A 4964   9.621  27.367   5.344  0.1131 -0.1013  0.0032
    1DIPC   C1B 4965   9.476  26.849   5.965 -0.0172 -0.1863  0.4986
    1DIPC   D2B 4966   9.281  26.541   5.703 -0.0845  0.4077  0.2365
    1DIPC   D3B 4967   9.408  26.807   5.311 -0.2060 -0.0363  0.2174
    1DIPC   C4B 4968   9.657  26.546   5.078  0.0562 -0.0909 -0.1600
    1DIPC   NC3 4969   1.434   7.024   6.997 -0.1013  0.0674  0.1146
    1DIPC   PO4 4970   1.595   7.239   6.631 -0.2223 -0.1846  0.0120
    1DIPC   GL1 4971   1.635   7.629   6.247  0.3295 -0.0300 -0.3068
    1DIPC   GL2 4972   1.900   7.576   6.126  0.1035 -0.0741 -0.0945
    1DIPC   C1A 4973   1.785   7.946   5.860 -0.1152  0.2784  0.0030
    1DIPC   D2A 4974   1.819   8.257   5.657  0.2334 -0.1760  0.1958
    1DIPC   D3A 4975   2.026   8.390   5.284 -0.1854 -0.0814  0.0371
    1DIPC   C4A 4976   2.078   7.988   5.043  0.0939 -0.0576  0.0531
    1DIPC   C1B 4977   1.515   7.513   5.805 -0.0596  0.1111 -0.1468
    1DIPC   D2B 4978   1.394   7.470   5.422  0.0805 -0.0448 -0.2492
    1DIPC   D3B 4979   1.523   7.457   4.908 -0.0946 -0.0897  0.0027
    1DIPC   C4B 4980   1.916   7.703   4.638  0.0549  0.0878 -0.2097
    1DIPC   NC3 4981  21.991  11.046   6.669 -0.1077  0.0527 -0.2928
    1DIPC   PO4 4982  21.924  10.591   6.528  0.0371  0.0817  0.0274
    1DIPC   GL1 4983  21.853  10.544   6.127  0.1754 -0.1353 -0.1977
    1DIPC   GL2 4984  21.822  10.804   5.921  0.1757  0.0419 -0.2352
    1DIPC   C1A 4985  21.999  10.130   5.917  0.2074 -0.0914 -0.1726
    1DIPC   D2A 4986  21.872   9.652   5.927 -0.1892  0.0869 -0.0097
    1DIPC   D3A 4987  21.525   9.640   6.304  0.3815  0.2936  0.1875
    1DIPC   C4A 4988  21.176   9.836   6.154 -0.3840 -0.0841  0.0752
    1DIPC   C1B 4989  21.887  11.125   5.768 -0.3382 -0.1043 -0.1230
    1DIPC   D2B 4990  22.105  11.357   5.391 -0.4070 -0.3710 -0.0980
    1DIPC   D3B 4991  22.031  10.914   5.352  0.2836  0.0987  0.0009
    1DIPC   C4B 4992  22.343  10.818   5.031 -0.0157  0.0514 -0.0962
    1DIPC   NC3 4993   9.401   3.805   7.474 -0.0867  0.1070  0.0349
    1DIPC   PO4 4994   9.282   4.040   7.245 -0.2971  0.2210  0.1759
    1DIPC   GL1 4995   9.127   3.939   6.838  0.0752  0.0469  0.2397
    1DIPC   GL2 4996   9.042   4.228   6.743  0.0717  0.1649  0.0293
    1DIPC   C1A 4997   9.270   3.883   6.469  0.0126 -0.1270  0.0823
    1DIPC   D2A 4998   9.548   3.889   6.050  0.1535 -0.2372 -0.2561
    1DIPC   D3A 4999   9.658   3.440   6.205  0.1034  0.0712  0.2154
    1DIPC   C4A 5000   9.578   3.254   6.571  0.1436  0.1263 -0.0355
    1DIPC   C1B 5001   8.946   4.360   6.397  0.1950  0.0095  0.1522
    1DIPC   D2B 5002   8.896   4.326   5.937 -0.1464  0.0127  0.3682
    1DIPC   D3B 5003   9.278   4.578   6.018  0.0425 -0.1503 -0.1710
    1DIPC   C4B 5004   9.426   4.461   6.429 -0.2844  0.5041  0.1083
    1DIPC   NC3 5005   1.718   6.043   5.258 -0.1865  0.1031 -0.1369
    1DIPC   PO4 5006   1.905   6.410   5.410  0.1140  0.2584  0.1998
    1DIPC   GL1 5007   1.797   6.460   4.976 -0.2867  0.1979 -0.2181
    1DIPC   GL2 5008   1.811   6.760   4.730  0.2494 -0.1253 -0.2263
    1DIPC   C1A 5009   1.568   6.355   4.566  0.3468  0.0737  0.3829
    1DIPC   D2A 5010   1.352   6.266   4.246 -0.1181  0.0143  0.0589
    1DIPC   D3A 5011   1.021   6.506   4.167  0.1838  0.0861  0.1842
    1DIPC   C4A 5012   0.953   6.930   4.314 -0.0945 -0.0613 -0.3708
    1DIPC   C1B 5013   1.904   7.197   4.592  0.0777  0.2187 -0.0330
    1DIPC   D2B 5014   2.099   7.334   4.294  0.1257  0.1132  0.0637
    1DIPC   D3B 5015   2.016   6.844   4.218 -0.1654  0.1254 -0.0704
    1DIPC   C4B 5016   2.414   6.758   4.371  0.0901  0.1738  0.0157
    1DIPC   NC3 5017   1.871   6.280   6.446 -0.1613  0.2084 -0.0807
    1DIPC   PO4 5018   1.473   6.607   6.147  0.1078  0.4041 -0.0470
    1DIPC   GL1 5019   1.220   6.799   5.914 -0.1334 -0.1742 -0.1696
    1DIPC   GL2 5020   1.142   7.096   5.782  0.1185 -0.0826  0.1025
    1DIPC   C1A 5021   1.086   6.663   5.446  0.0076  0.1740 -0.0712
    1DIPC   D2A 5022   1.298   6.323   5.136 -0.1235 -0.0315 -0.0350
    1DIPC   D3A 5023   1.102   6.110   4.815 -0.0177 -0.2434  0.0095
    1DIPC   C4A 5024   1.278   5.815   4.509 -0.2753 -0.1207 -0.1051
    1DIPC   C1B 5025   1.517   6.972   5.534 -0.4426  0.2286 -0.1035
    1DIPC   D2B 5026   1.757   6.891   5.179 -0.1588 -0.0571 -0.0518
    1DIPC   D3B 5027   1.818   7.312   5.286  0.3414 -0.0453 -0.0928
    1DIPC   C4B 5028   2.029   7.581   5.606 -0.0294 -0.2131  0.1451
    1DIPC   NC3 5029  18.662  19.187   7.318  0.2341 -0.2666 -0.1335
    1DIPC   PO4 5030  19.142  19.213   7.153  0.2353 -0.1287 -0.0171
    1DIPC   GL1 5031  18.984  18.919   6.914 -0.0667 -0.1099  0.0884
    1DIPC   GL2 5032  18.733  19.159   6.812 -0.1298 -0.0065 -0.0016
    1DIPC   C1A 5033  18.853  18.661   6.668 -0.1592  0.2798 -0.1357
    1DIPC   D2A 5034  18.741  18.517   6.305 -0.0994  0.0651  0.3341
    1DIPC   D3A 5035  19.149  18.575   6.148  0.1604  0.2469  0.0658
    1DIPC   C4A 5036  19.353  18.272   6.079 -0.2055 -0.2135  0.2667
    1DIPC   C1B 5037  18.683  19.006   6.395  0.0523  0.2444  0.0350
    1DIPC   D2B 5038  18.570  18.899   6.000 -0.2690  0.1260  0.2605
    1DIPC   D3B 5039  18.762  19.368   5.832  0.0089  0.5015  0.1685
    1DIPC   C4B 5040  18.863  19.487   6.250 -0.4720  0.0126  0.0008
    1DIPC   NC3 5041  27.995   3.251   6.626 -0.1773 -0.3564 -0.2311
    1DIPC   PO4 5042  28.200   3.373   6.248 -0.0006  0.0195  0.3217
    1DIPC   GL1 5043  28.088   3.327   5.880 -0.2230 -0.0685 -0.1469
    1DIPC   GL2 5044  28.103   3.513   5.686  0.0567 -0.2979  0.3638
    1DIPC   C1A 5045  28.019   2.942   5.566 -0.0759  0.0088 -0.1114
    1DIPC   D2A 5046  27.726   2.832   5.323 -0.1046  0.0084  0.0996
    1DIPC   D3A 5047  27.602   3.087   4.964 -0.1335 -0.0953 -0.0520
    1DIPC   C4A 5048  27.697   3.154   4.537  0.1936  0.0381 -0.1858
    1DIPC   C1B 5049  28.321   3.329   5.346  0.0139 -0.0807  0.1957
    1DIPC   D2B 5050  28.484   3.019   5.084  0.0911 -0.1168  0.0470
    1DIPC   D3B 5051  28.253   2.642   5.197 -0.0518  0.0842  0.0413
    1DIPC   C4B 5052  28.171   2.287   4.993  0.1726 -0.1519  0.1133
    1DIPC   NC3 5053   9.069  27.188   7.547 -0.0039 -0.0007  0.0182
    1DIPC   PO4 5054   8.922  27.301   7.138  0.4142  0.1603  0.3217
    1DIPC   GL1 5055   9.000  27.397   6.808 -0.0546  0.1933  0.2783
    1DIPC   GL2 5056   8.728  27.220   6.696  0.0212  0.1448  0.1880
    1DIPC   C1A 5057   9.174  27.407   6.370  0.1142 -0.0291  0.0171
    1DIPC   D2A 5058   9.404  27.501   5.955 -0.0951 -0.1458  0.0700
    1DIPC   D3A 5059   9.741  27.312   6.240  0.2693 -0.1875 -0.1671
    1DIPC   C4A 5060   9.968  26.915   6.147 -0.0651  0.2071  0.0754
    1DIPC   C1B 5061   8.690  27.557   6.317 -0.2492  0.0624  0.0214
    1DIPC   D2B 5062   8.657  27.951   5.934  0.0734  0.2406  0.0585
    1DIPC   D3B 5063   8.457  27.643   5.606  0.4423  0.0969 -0.1233
    1DIPC   C4B 5064   8.644  27.635   5.223  0.0373  0.1492  0.2199
    1DIPC   NC3 5065  16.996  26.098   7.289 -0.2309  0.0364  0.1835
    1DIPC   PO4 5066  17.060  25.766   7.106  0.2093  0.0764 -0.0999
    1DIPC   GL1 5067  17.321  25.743   6.784  0.0545 -0.1876  0.0061
    1DIPC   GL2 5068  17.371  25.465   6.704  0.2440 -0.3662  0.1360
    1DIPC   C1A 5069  17.551  25.919   6.461 -0.0819 -0.1171  0.1913
    1DIPC   D2A 5070  18.062  25.752   6.552  0.0678  0.1925  0.1978
    1DIPC   D3A 5071  17.981  25.668   6.243  0.0106 -0.0690  0.2224
    1DIPC   C4A 5072  17.526  25.596   6.049  0.1496  0.1351  0.0102
    1DIPC   C1B 5073  17.093  25.550   6.374  0.0450 -0.2302  0.0149
    1DIPC   D2B 5074  16.767  25.689   6.575 -0.3554  0.0595 -0.1455
    1DIPC   D3B 5075  16.883  26.070   6.371 -0.3244  0.0734  0.1048
    1DIPC   C4B 5076  16.548  26.181   6.144 -0.0743 -0.0251 -0.1182
    1DIPC   NC3 5077   5.840  20.162   6.396 -0.1358 -0.2634 -0.0685
    1DIPC   PO4 5078   6.008  20.119   5.975 -0.1896  0.0314  0.0562
    1DIPC   GL1 5079   6.091  20.266   5.661  0.2054  0.0263  0.1185
    1DIPC   GL2 5080   6.065  20.553   5.481 -0.0906  0.0960  0.2342
    1DIPC   C1A 5081   6.436  20.280   5.299 -0.1060 -0.0744 -0.1004
    1DIPC   D2A 5082   6.714  19.987   5.126 -0.0156 -0.3019  0.2595
    1DIPC   D3A 5083   6.870  20.311   4.959  0.1142  0.3668  0.0249
    1DIPC   C4A 5084   7.136  20.616   5.330 -0.4958  0.2289 -0.0718
    1DIPC   C1B 5085   6.176  20.639   5.047 -0.2454  0.1089  0.1487
    1DIPC   D2B 5086   6.383  20.483   4.675 -0.1196 -0.0118  0.3249
    1DIPC   D3B 5087   6.243  20.187   4.384  0.1385  0.0503  0.0986
    1DIPC   C4B 5088   6.302  19.778   4.388 -0.1702 -0.2320 -0.0257
    1DIPC   NC3 5089   3.677  25.827   6.889  0.0414 -0.0563  0.0103
    1DIPC   PO4 5090   3.402  25.862   6.497 -0.0599 -0.0497 -0.1668
    1DIPC   GL1 5091   3.505  25.805   5.992  0.4013 -0.0010  0.2952
    1DIPC   GL2 5092   3.669  25.521   6.049  0.1548  0.0868  0.0981
    1DIPC   C1A 5093   3.641  25.612   5.520  0.1695 -0.0658 -0.0678
    1DIPC   D2A 5094   3.487  25.618   5.055 -0.3493 -0.1526  0.2232
    1DIPC   D3A 5095   3.568  26.009   5.019 -0.2285 -0.0240 -0.0713
    1DIPC   C4A 5096   3.639  26.421   5.148 -0.0156  0.1709 -0.1567
    1DIPC   C1B 5097   3.995  25.715   5.864  0.0740 -0.4374  0.2169
    1DIPC   D2B 5098   4.478  25.520   5.708 -0.1397 -0.0695  0.0229
    1DIPC   D3B 5099   4.837  25.802   5.658  0.1191  0.2531 -0.2448
    1DIPC   C4B 5100   4.934  26.071   5.458 -0.1345  0.0355 -0.3204
    1DIPC   NC3 5101  20.345  22.240   6.657  0.0191  0.0824 -0.0635
    1DIPC   PO4 5102  20.525  22.391   6.362 -0.2664 -0.2861  0.2442
    1DIPC   GL1 5103  20.647  22.456   5.979  0.2271 -0.3191  0.4448
    1DIPC   GL2 5104  20.544  22.141   5.912  0.1500 -0.1531 -0.0898
    1DIPC   C1A 5105  20.664  22.691   5.622 -0.3168 -0.0386  0.0300
    1DIPC   D2A 5106  20.426  22.645   5.268  0.0605 -0.1688 -0.1829
    1DIPC   D3A 5107  20.248  22.380   5.605 -0.1231  0.0704  0.0697
    1DIPC   C4A 5108  20.097  21.955   5.675 -0.1551  0.1360 -0.1864
    1DIPC   C1B 5109  20.812  21.878   5.641 -0.0131 -0.1083 -0.2273
    1DIPC   D2B 5110  21.301  21.892   5.589  0.0534  0.1583 -0.2901
    1DIPC   D3B 5111  21.188  22.009   5.201 -0.1230  0.1552 -0.1830
    1DIPC   C4B 5112  21.212  22.470   4.990 -0.3946 -0.1982  0.1064
    1DIPC   NC3 5113  12.498  25.621   7.223 -0.1081  0.1783 -0.1491
    1DIPC   PO4 5114  12.944  25.387   7.159  0.1006  0.3859  0.0581
    1DIPC   GL1 5115  12.875  25.656   6.804  0.0578  0.0844 -0.0275
    1DIPC   GL2 5116  12.490  25.636   6.707  0.2258 -0.0266 -0.0800
    1DIPC   C1A 5117  12.826  25.682   6.355 -0.1896  0.2261 -0.0186
    1DIPC   D2A 5118  12.775  25.981   6.008 -0.1714 -0.1434  0.1882
    1DIPC   D3A 5119  12.938  25.574   5.814 -0.0594  0.1250  0.4113
    1DIPC   C4A 5120  13.106  25.565   5.482 -0.0337  0.0130  0.1299
    1DIPC   C1B 5121  12.337  25.753   6.243 -0.1093  0.0208 -0.2445
    1DIPC   D2B 5122  12.294  26.041   5.955 -0.1495 -0.0825 -0.0553
    1DIPC   D3B 5123  12.042  26.095   5.593  0.2138  0.1647 -0.1138
    1DIPC   C4B 5124  11.718  25.692   5.586 -0.4341  0.4363  0.0624
    1DIPC   NC3 5125  28.607  25.130   6.696 -0.0563 -0.0498  0.0435
    1DIPC   PO4 5126  29.003  25.105   6.620  0.1729 -0.0241  0.0098
    1DIPC   GL1 5127  28.745  25.126   6.250  0.1463 -0.2084 -0.0480
    1DIPC   GL2 5128  28.647  24.880   5.985 -0.1145  0.0311  0.0680
    1DIPC   C1A 5129  28.963  25.216   5.770 -0.0278  0.0959 -0.1292
    1DIPC   D2A 5130  28.712  25.180   5.373 -0.1837 -0.2459  0.4172
    1DIPC   D3A 5131  28.842  25.281   4.918  0.2352  0.0460 -0.0164
    1DIPC   C4A 5132  28.601  25.192   4.602 -0.3354  0.2205  0.1069
    1DIPC   C1B 5133  28.674  24.496   5.765  0.3515 -0.0446 -0.2487
    1DIPC   D2B 5134  28.962  24.182   5.669  0.0402  0.0120  0.0721
    1DIPC   D3B 5135  28.779  24.245   5.244 -0.0596 -0.1616  0.2677
    1DIPC   C4B 5136  29.093  24.530   4.976 -0.2495 -0.0475  0.1134
    1DIPC   NC3 5137  29.042  24.029   6.210  0.0660 -0.3203  0.0954
    1DIPC   PO4 5138  28.996  23.590   6.247 -0.0017 -0.0451  0.2413
    1DIPC   GL1 5139  29.029  23.712   5.783 -0.0399 -0.0649 -0.0374
    1DIPC   GL2 5140  29.409  23.806   5.893 -0.2097 -0.0916  0.0624
    1DIPC   C1A 5141  28.868  23.747   5.332 -0.3318 -0.2006  0.1003
    1DIPC   D2A 5142  29.062  23.661   4.927  0.0883  0.1461  0.0393
    1DIPC   D3A 5143  29.018  24.088   4.843 -0.1667  0.1022 -0.0838
    1DIPC   C4A 5144  28.665  24.346   4.734  0.2393 -0.1519  0.0846
    1DIPC   C1B 5145  29.736  23.641   5.631  0.4302  0.1984 -0.3547
    1DIPC   D2B 5146  30.045  23.555   5.714 -0.3152 -0.1136 -0.3813
    1DIPC   D3B 5147  30.185  23.536   5.312 -0.1229  0.2039 -0.1265
    1DIPC   C4B 5148  30.348  23.214   4.865  0.2541 -0.2439 -0.1897
    1DIPC   NC3 5149   4.748   8.651   6.171  0.1998 -0.1176 -0.0851
    1DIPC   PO4 5150   4.507   8.982   5.913  0.1318 -0.0549  0.0915
    1DIPC   GL1 5151   4.484   8.675   5.547  0.1924 -0.3064  0.4089
    1DIPC   GL2 5152   4.203   8.528   5.538 -0.1067 -0.1040  0.2703
    1DIPC   C1A 5153   4.618   8.362   5.264 -0.1581  0.1857  0.1112
    1DIPC   D2A 5154   4.744   8.142   5.019  0.3071 -0.1387 -0.5383
    1DIPC   D3A 5155   5.033   7.943   5.118 -0.0060  0.0663 -0.2580
    1DIPC   C4A 5156   5.471   8.119   5.124  0.2787  0.2630  0.4518
    1DIPC   C1B 5157   3.853   8.456   5.271 -0.0868  0.2285  0.0151
    1DIPC   D2B 5158   3.775   8.721   4.941  0.0156 -0.1006  0.0265
    1DIPC   D3B 5159   3.379   8.944   4.830 -0.0438  0.2107 -0.0181
    1DIPC   C4B 5160   3.189   8.631   4.716  0.2465  0.2346 -0.0576
    1DIPC   NC3 5161   3.627  28.993   6.359  0.0961  0.1261  0.1559
    1DIPC   PO4 5162   3.292  29.281   6.300 -0.0547 -0.4394  0.0211
    1DIPC   GL1 5163   3.104  29.117   5.989 -0.0022 -0.1494  0.1098
    1DIPC   GL2 5164   3.087  28.792   6.102 -0.0320  0.0893  0.1588
    1DIPC   C1A 5165   3.227  28.981   5.592  0.4612  0.0887 -0.2999
    1DIPC   D2A 5166   3.273  28.891   5.125 -0.1669 -0.0574 -0.2224
    1DIPC   D3A 5167   3.707  28.910   4.971  0.1834 -0.1997  0.2738
    1DIPC   C4A 5168   4.156  28.737   5.036  0.3670 -0.2574  0.0455
    1DIPC   C1B 5169   3.097  28.459   5.789 -0.1343 -0.1065 -0.2870
    1DIPC   D2B 5170   3.014  28.479   5.346 -0.1494  0.0125 -0.3632
    1DIPC   D3B 5171   3.263  28.443   4.976 -0.0308 -0.0059  0.0081
    1DIPC   C4B 5172   3.008  28.325   4.632 -0.0391 -0.2501 -0.1091
    1DIPC   NC3 5173   3.878  13.114   6.355 -0.0065  0.3074  0.0985
    1DIPC   PO4 5174   3.927  13.539   6.301 -0.2279 -0.4655  0.0765
    1DIPC   GL1 5175   3.622  13.673   5.937 -0.0132 -0.1240  0.0585
    1DIPC   GL2 5176   3.712  13.923   5.682 -0.0101 -0.1870  0.2599
    1DIPC   C1A 5177   3.344  13.531   5.692 -0.1214 -0.0958  0.3315
    1DIPC   D2A 5178   3.129  13.822   5.341  0.0868 -0.0021 -0.0656
    1DIPC   D3A 5179   3.055  13.385   5.192  0.0573  0.0349 -0.2323
    1DIPC   C4A 5180   3.184  13.169   4.801 -0.0005  0.0598  0.0900
    1DIPC   C1B 5181   3.596  13.929   5.284 -0.0678 -0.2234  0.1595
    1DIPC   D2B 5182   3.548  13.515   5.082  0.0754 -0.2409 -0.1679
    1DIPC   D3B 5183   3.694  13.616   4.599  0.0901  0.1459  0.2020
    1DIPC   C4B 5184   3.446  13.374   4.315  0.2848 -0.1367  0.0293
    1DIPC   NC3 5185   6.210  16.499   6.209  0.0941 -0.1106  0.0914
    1DIPC   PO4 5186   6.554  16.347   6.245  0.0466  0.2912 -0.0147
    1DIPC   GL1 5187   6.530  16.435   5.824  0.0017  0.2191 -0.2615
    1DIPC   GL2 5188   6.587  16.698   5.737  0.0982 -0.0375  0.0726
    1DIPC   C1A 5189   6.606  16.208   5.429 -0.1689  0.1834  0.2364
    1DIPC   D2A 5190   6.798  16.117   5.032 -0.1507 -0.0902 -0.0509
    1DIPC   D3A 5191   6.534  16.231   4.717  0.0348  0.0025 -0.0063
    1DIPC   C4A 5192   6.167  16.303   4.433 -0.0736  0.1356  0.2759
    1DIPC   C1B 5193   6.909  16.571   5.343  0.3201  0.1034  0.1820
    1DIPC   D2B 5194   7.155  16.675   5.077 -0.1506  0.0803 -0.1871
    1DIPC   D3B 5195   7.248  16.921   4.765  0.0689  0.2251 -0.1971
    1DIPC   C4B 5196   7.569  16.956   4.447  0.1027  0.0780  0.1752
    1DIPC   NC3 5197  24.928   2.402   5.794  0.0123 -0.0190 -0.1071
    1DIPC   PO4 5198  25.246   2.593   5.840  0.3734  0.0097 -0.1186
    1DIPC   GL1 5199  25.308   2.786   5.543 -0.1797 -0.1193  0.3023
    1DIPC   GL2 5200  25.642   3.055   5.447  0.1411  0.1106 -0.2937
    1DIPC   C1A 5201  25.061   2.878   5.106  0.2432  0.0509  0.0777
    1DIPC   D2A 5202  24.903   2.818   4.689 -0.0196 -0.1084  0.1049
    1DIPC   D3A 5203  24.986   2.476   4.789  0.1047 -0.2742 -0.1441
    1DIPC   C4A 5204  24.622   2.291   5.069  0.0142 -0.0631  0.1080
    1DIPC   C1B 5205  25.991   3.308   5.306 -0.2860  0.2380 -0.4313
    1DIPC   D2B 5206  26.436   3.412   5.347  0.2544  0.1791  0.2871
    1DIPC   D3B 5207  26.394   3.603   4.992  0.1092  0.2911 -0.1517
    1DIPC   C4B 5208  26.687   3.625   4.624  0.0168 -0.3849 -0.1627
    1DIPC   NC3 5209  12.005   6.027   7.294 -0.2775  0.1810 -0.1136
    1DIPC   PO4 5210  11.760   5.955   6.967  0.0253 -0.0254 -0.1065
    1DIPC   GL1 5211  12.061   5.934   6.582  0.0667  0.1372 -0.2046
    1DIPC   GL2 5212  12.056   5.667   6.457 -0.0196  0.0942  0.0075
    1DIPC   C1A 5213  12.233   6.049   6.151 -0.2094 -0.0854 -0.0667
    1DIPC   D2A 5214  12.163   6.089   5.680 -0.0538  0.0911  0.1234
    1DIPC   D3A 5215  11.950   5.703   5.475 -0.2102 -0.2459  0.3941
    1DIPC   C4A 5216  11.998   5.760   5.086 -0.0656  0.2002 -0.0196
    1DIPC   C1B 5217  11.823   5.226   6.412 -0.0400  0.1626  0.2073
    1DIPC   D2B 5218  11.565   4.728   6.442  0.0235  0.1212 -0.1228
    1DIPC   D3B 5219  11.610   4.410   6.100  0.2860  0.1760  0.3542
    1DIPC   C4B 5220  11.380   4.229   5.698 -0.5014 -0.0259 -0.1542
    1DIPC   NC3 5221  18.996  23.475   6.292  0.2168  0.3598  0.0187
    1DIPC   PO4 5222  18.648  23.137   6.259 -0.3350  0.1210  0.0678
    1DIPC   GL1 5223  18.816  23.242   5.861  0.3955  0.1293 -0.1235
    1DIPC   GL2 5224  19.167  23.172   5.892  0.2161 -0.0717 -0.0437
    1DIPC   C1A 5225  18.763  23.183   5.487  0.0475 -0.0409 -0.3410
    1DIPC   D2A 5226  18.532  23.392   5.181  0.2030 -0.1120  0.0646
    1DIPC   D3A 5227  18.163  23.274   4.847 -0.0266 -0.2216  0.0113
    1DIPC   C4A 5228  17.814  23.292   4.859 -0.1362 -0.0454 -0.0438
    1DIPC   C1B 5229  19.251  23.020   5.458 -0.1559  0.0059  0.1280
    1DIPC   D2B 5230  19.011  23.096   5.052  0.0928 -0.1605 -0.0292
    1DIPC   D3B 5231  19.230  23.335   4.814  0.0071 -0.0559 -0.0342
    1DIPC   C4B 5232  19.689  23.328   4.936 -0.2140  0.3249  0.1573
    1DIPC   NC3 5233   7.787   0.725   7.075  0.0025 -0.0382 -0.1094
    1DIPC   PO4 5234   7.788   1.113   6.937  0.1627  0.0260 -0.1278
    1DIPC   GL1 5235   7.641   1.035   6.555 -0.0721  0.1481 -0.0659
    1DIPC   GL2 5236   7.958   1.102   6.387 -0.1723  0.0987 -0.2838
    1DIPC   C1A 5237   7.643   1.096   6.038  0.3377 -0.1278 -0.0168
    1DIPC   D2A 5238   7.612   0.944   5.583 -0.0813  0.1313 -0.0462
    1DIPC   D3A 5239   7.738   0.535   5.526  0.0351  0.0388 -0.1656
    1DIPC   C4A 5240   7.687   0.469   5.112 -0.0677 -0.2590  0.0507
    1DIPC   C1B 5241   8.199   0.952   6.079  0.2032 -0.2166 -0.2851
    1DIPC   D2B 5242   8.286   1.188   5.748 -0.0161  0.3246  0.1214
    1DIPC   D3B 5243   8.118   0.867   5.469  0.1381  0.3558  0.0541
    1DIPC   C4B 5244   7.912   1.154   5.221  0.0718 -0.3421  0.2326
    1DIPC   NC3 5245  21.166  28.660   7.049 -0.1304  0.0637  0.1279
    1DIPC   PO4 5246  20.856  28.497   6.881 -0.1532 -0.1831 -0.0660
    1DIPC   GL1 5247  20.913  28.422   6.425 -0.1630 -0.1007  0.2070
    1DIPC   GL2 5248  20.937  28.099   6.277 -0.1017  0.0002 -0.1260
    1DIPC   C1A 5249  20.599  28.447   6.086 -0.0323 -0.0185  0.0635
    1DIPC   D2A 5250  20.189  28.704   5.982 -0.0349 -0.0360 -0.1286
    1DIPC   D3A 5251  19.900  28.839   5.795 -0.0905 -0.0750  0.1119
    1DIPC   C4A 5252  19.749  28.692   5.364  0.3217  0.0650  0.1067
    1DIPC   C1B 5253  21.076  28.363   5.917  0.1708  0.0925 -0.1830
    1DIPC   D2B 5254  20.813  28.472   5.529 -0.2609  0.2590 -0.0697
    1DIPC   D3B 5255  20.732  28.884   5.650 -0.2306 -0.1669 -0.0691
    1DIPC   C4B 5256  20.957  29.158   5.346 -0.1586 -0.0002  0.0562
    1DIPC   NC3 5257  28.599  14.129   5.797 -0.1603  0.0929  0.1131
    1DIPC   PO4 5258  28.509  13.702   5.978 -0.3478 -0.0837 -0.0547
    1DIPC   GL1 5259  28.487  13.691   5.585 -0.0047  0.0643  0.1254
    1DIPC   GL2 5260  28.178  13.982   5.526 -0.1514  0.3604  0.2462
    1DIPC   C1A 5261  28.757  13.398   5.280 -0.0524  0.3792 -0.0340
    1DIPC   D2A 5262  29.162  13.268   5.066  0.1777 -0.2120  0.1282
    1DIPC   D3A 5263  28.884  12.916   4.925 -0.2056 -0.0148 -0.1362
    1DIPC   C4A 5264  28.614  12.746   4.531 -0.3053  0.0034 -0.2162
    1DIPC   C1B 5265  28.229  13.858   5.135  0.1432  0.2003  0.2185
    1DIPC   D2B 5266  28.206  13.480   4.927 -0.2577 -0.1613  0.3952
    1DIPC   D3B 5267  28.187  13.124   4.631 -0.1133 -0.2286  0.0743
    1DIPC   C4B 5268  28.270  13.063   4.210  0.2767 -0.1446  0.2365
    1DIPC   NC3 5269  28.729   3.483   6.508  0.2751  0.1477 -0.2446
    1DIPC   PO4 5270  29.018   3.008   6.442  0.1206  0.1891  0.2630
    1DIPC   GL1 5271  29.095   2.911   6.035 -0.2075 -0.1112 -0.4397
    1DIPC   GL2 5272  28.810   2.775   5.838  0.0624 -0.2937 -0.1545
    1DIPC   C1A 5273  29.259   3.038   5.672 -0.0884  0.3159  0.0341
    1DIPC   D2A 5274  29.470   3.088   5.303 -0.2001  0.0166  0.1457
    1DIPC   D3A 5275  29.103   3.171   5.056  0.0496  0.4965  0.2224
    1DIPC   C4A 5276  28.789   3.460   5.225  0.0436 -0.1359 -0.2092
    1DIPC   C1B 5277  28.937   2.799   5.319 -0.1583  0.2789 -0.2834
    1DIPC   D2B 5278  28.835   2.738   4.920  0.1904 -0.0528  0.0140
    1DIPC   D3B 5279  28.735   3.067   4.545 -0.2066  0.2085 -0.1517
    1DIPC   C4B 5280  28.314   3.169   4.421 -0.2163  0.0539 -0.1499
    1DIPC   NC3 5281  26.765  15.558   6.000  0.2849  0.2283  0.3929
    1DIPC   PO4 5282  27.002  15.599   5.679  0.1065  0.0939  0.0571
    1DIPC   GL1 5283  26.869  15.938   5.279 -0.0352  0.1137  0.1678
    1DIPC   GL2 5284  26.714  15.621   5.120 -0.4445  0.1435  0.1138
    1DIPC   C1A 5285  27.048  16.119   5.009  0.0958 -0.0047 -0.0378
    1DIPC   D2A 5286  27.229  16.419   4.860 -0.0352  0.2140  0.0305
    1DIPC   D3A 5287  27.023  16.230   4.490  0.1149 -0.1746  0.0232
    1DIPC   C4A 5288  27.139  15.933   4.194 -0.0377  0.1863 -0.2645
    1DIPC   C1B 5289  26.533  15.174   5.040  0.0505 -0.1246  0.0253
    1DIPC   D2B 5290  26.193  14.814   4.989 -0.0043  0.1565  0.1104
    1DIPC   D3B 5291  26.177  14.920   4.521  0.0255  0.0301  0.1143
    1DIPC   C4B 5292  26.473  15.196   4.509 -0.3770 -0.0183 -0.0196
    1DIPC   NC3 5293  22.319  23.381   7.512  0.0217 -0.3513 -0.2346
    1DIPC   PO4 5294  22.359  23.438   7.010  0.0067 -0.0327 -0.3894
    1DIPC   GL1 5295  22.161  23.441   6.496 -0.1935 -0.2867  0.1512
    1DIPC   GL2 5296  21.938  23.742   6.364  0.0500 -0.4299 -0.0621
    1DIPC   C1A 5297  22.115  23.338   6.015  0.1018  0.0268 -0.0843
    1DIPC   D2A 5298  21.872  23.169   5.635 -0.1654 -0.1662 -0.1214
    1DIPC   D3A 5299  21.567  23.185   5.992 -0.0204  0.0397  0.0682
    1DIPC   C4A 5300  21.505  23.608   6.097  0.2751 -0.0417 -0.2448
    1DIPC   C1B 5301  21.951  23.862   5.924  0.0564  0.0592  0.2354
    1DIPC   D2B 5302  21.814  23.624   5.720 -0.1746  0.0320 -0.1078
    1DIPC   D3B 5303  21.810  24.054   5.440  0.2171  0.1779  0.2314
    1DIPC   C4B 5304  22.154  24.216   5.567 -0.0227 -0.2009 -0.1510
    1DIPC   NC3 5305  22.445  11.690   6.973  0.1163  0.2024  0.0067
    1DIPC   PO4 5306  22.145  11.585   6.598  0.0732 -0.1869 -0.0580
    1DIPC   GL1 5307  22.129  11.619   6.182  0.0618  0.3082  0.0827
    1DIPC   GL2 5308  21.827  11.689   6.051 -0.0243  0.3147  0.0535
    1DIPC   C1A 5309  22.330  11.609   5.777 -0.1396 -0.3253  0.0419
    1DIPC   D2A 5310  22.638  11.721   5.703  0.1253  0.1124  0.0492
    1DIPC   D3A 5311  22.740  11.479   5.344  0.3384 -0.0883 -0.0163
    1DIPC   C4A 5312  22.439  11.350   4.982 -0.0940  0.1523 -0.2030
    1DIPC   C1B 5313  21.663  11.589   5.550 -0.3751 -0.0694 -0.3794
    1DIPC   D2B 5314  21.544  11.256   5.222 -0.3492  0.0276  0.0513
    1DIPC   D3B 5315  21.399  11.108   5.588 -0.0171 -0.2261  0.1248
    1DIPC   C4B 5316  21.400  10.688   5.643 -0.1576  0.0062 -0.0571
    1DIPC   NC3 5317  25.138  18.481   6.861 -0.1374 -0.1294  0.0953
    1DIPC   PO4 5318  24.949  18.717   6.574  0.1895  0.1387 -0.2157
    1DIPC   GL1 5319  24.955  18.683   6.162  0.4611  0.1514  0.1328
    1DIPC   GL2 5320  24.600  18.832   6.126  0.0453 -0.0202  0.0696
    1DIPC   C1A 5321  25.121  18.614   5.756  0.1958 -0.1133  0.1245
    1DIPC   D2A 5322  25.042  18.426   5.288 -0.1315 -0.0679 -0.1874
    1DIPC   D3A 5323  24.967  18.682   4.810  0.0957 -0.2339  0.3135
    1DIPC   C4A 5324  24.593  18.591   4.488 -0.1411 -0.0886 -0.0540
    1DIPC   C1B 5325  24.608  18.964   5.629  0.0056 -0.1786 -0.2421
    1DIPC   D2B 5326  24.709  19.234   5.417  0.3126 -0.0262 -0.1258
    1DIPC   D3B 5327  24.569  18.968   5.090  0.1607  0.0672 -0.1646
    1DIPC   C4B 5328  24.570  18.633   5.244 -0.4339  0.1418 -0.2702
    1DIPC   NC3 5329  16.092  20.500   7.126 -0.1403 -0.0349  0.1174
    1DIPC   PO4 5330  16.040  20.988   6.975  0.3125  0.5145  0.0280
    1DIPC   GL1 5331  16.023  20.752   6.660  0.0110  0.0775  0.0646
    1DIPC   GL2 5332  15.777  20.407   6.737  0.0756 -0.2229 -0.0195
    1DIPC   C1A 5333  16.343  20.582   6.364  0.1568 -0.1800 -0.2350
    1DIPC   D2A 5334  16.735  20.525   6.364  0.0878  0.1332 -0.1285
    1DIPC   D3A 5335  16.552  20.195   6.074  0.2079  0.0017 -0.1661
    1DIPC   C4A 5336  16.099  20.139   6.266 -0.1681  0.1514 -0.2408
    1DIPC   C1B 5337  15.512  20.799   6.494 -0.0537  0.0809 -0.0405
    1DIPC   D2B 5338  15.488  20.996   6.137 -0.1850  0.0493  0.1579
    1DIPC   D3B 5339  15.655  20.779   5.711  0.1657  0.0291  0.1492
    1DIPC   C4B 5340  15.610  20.361   5.690 -0.0115 -0.1131  0.3456
    1DIPC   NC3 5341   7.666  26.766   7.203  0.0901  0.2833  0.0064
    1DIPC   PO4 5342   8.003  26.744   6.921  0.0832  0.0579  0.0904
    1DIPC   GL1 5343   8.211  26.616   6.577 -0.1852  0.1459  0.1951
    1DIPC   GL2 5344   8.503  26.742   6.635 -0.2258 -0.0238 -0.1398
    1DIPC   C1A 5345   7.985  26.732   6.183  0.0189 -0.1026  0.0829
    1DIPC   D2A 5346   7.566  26.979   6.044  0.2147 -0.0046  0.2054
    1DIPC   D3A 5347   7.540  27.360   6.331 -0.1571  0.1312  0.0336
    1DIPC   C4A 5348   7.458  27.663   6.067 -0.1297  0.0279  0.1694
    1DIPC   C1B 5349   8.588  26.990   6.276  0.0422  0.0255  0.0389
    1DIPC   D2B 5350   8.576  27.229   5.931 -0.0234  0.0906  0.1339
    1DIPC   D3B 5351   8.938  27.593   5.727  0.0176  0.2134  0.0849
    1DIPC   C4B 5352   9.199  27.586   5.410 -0.1879  0.1656 -0.1694
    1DIPC   NC3 5353  24.364  24.614   6.420 -0.2356 -0.1264  0.0248
    1DIPC   PO4 5354  24.524  24.251   6.316  0.3355 -0.2213 -0.0167
    1DIPC   GL1 5355  24.229  24.308   5.986 -0.1384  0.0436  0.2265
    1DIPC   GL2 5356  24.184  24.594   5.901  0.1592 -0.0286 -0.3752
    1DIPC   C1A 5357  23.894  24.237   5.657 -0.1681  0.0654 -0.0318
    1DIPC   D2A 5358  23.707  24.182   5.177 -0.0222 -0.0037  0.0223
    1DIPC   D3A 5359  23.393  24.374   4.822 -0.0132 -0.1716  0.2819
    1DIPC   C4A 5360  23.257  23.963   4.532 -0.1174 -0.3726 -0.2392
    1DIPC   C1B 5361  23.884  24.843   5.770 -0.1801 -0.0593 -0.0082
    1DIPC   D2B 5362  23.808  25.233   5.479  0.2464 -0.0812 -0.1064
    1DIPC   D3B 5363  23.971  25.313   5.877  0.2485  0.1261 -0.2109
    1DIPC   C4B 5364  24.398  25.459   5.950 -0.0385  0.1884 -0.0043
    1DIPC   NC3 5365   7.958   4.336   6.931 -0.2291 -0.0995 -0.1353
    1DIPC   PO4 5366   7.690   3.983   6.773 -0.1614 -0.0075 -0.0197
    1DIPC   GL1 5367   7.728   3.698   6.491  0.1970 -0.0111 -0.2118
    1DIPC   GL2 5368   7.861   3.378   6.421 -0.2012 -0.0684  0.4654
    1DIPC   C1A 5369   7.702   3.616   6.024 -0.1488  0.1737  0.0816
    1DIPC   D2A 5370   7.873   3.618   5.602  0.1083  0.4432  0.0539
    1DIPC   D3A 5371   8.056   3.909   5.885  0.2008  0.0269  0.1997
    1DIPC   C4A 5372   7.966   4.328   5.822 -0.1414  0.1657 -0.0327
    1DIPC   C1B 5373   8.025   3.139   6.014  0.1568 -0.2234 -0.0519
    1DIPC   D2B 5374   7.962   3.087   5.581 -0.0625  0.2537  0.1181
    1DIPC   D3B 5375   7.626   2.918   5.358 -0.0519 -0.3637 -0.1023
    1DIPC   C4B 5376   7.707   2.508   5.108 -0.1527  0.2606  0.1490
    1DIPC   NC3 5377  20.689   7.494   7.183  0.4436  0.3073 -0.1563
    1DIPC   PO4 5378  20.516   7.134   6.865 -0.1603 -0.2420  0.0522
    1DIPC   GL1 5379  20.474   7.012   6.465  0.2007 -0.1988 -0.1040
    1DIPC   GL2 5380  20.530   6.668   6.373 -0.0863  0.0988  0.2228
    1DIPC   C1A 5381  20.535   7.057   5.984 -0.1553  0.1797 -0.0879
    1DIPC   D2A 5382  20.712   7.432   5.633 -0.0596  0.0810 -0.0512
    1DIPC   D3A 5383  20.273   7.409   5.715 -0.0132  0.2138  0.1028
    1DIPC   C4A 5384  20.164   7.353   6.085 -0.0023  0.1097  0.2295
    1DIPC   C1B 5385  20.782   6.361   6.226  0.2570 -0.1372  0.1685
    1DIPC   D2B 5386  21.021   5.972   5.982  0.1822 -0.3211  0.0002
    1DIPC   D3B 5387  20.803   6.066   5.538  0.1445  0.2877 -0.1488
    1DIPC   C4B 5388  20.820   6.419   5.296  0.0184 -0.0193  0.1314
    1DIPC   NC3 5389  21.195   0.316   6.133 -0.0559 -0.1281  0.0650
    1DIPC   PO4 5390  21.103  -0.075   5.996 -0.1833  0.1610 -0.0127
    1DIPC   GL1 5391  21.412  -0.003   5.738 -0.2394  0.0299 -0.1769
    1DIPC   GL2 5392  21.476   0.355   5.718  0.0145 -0.0329  0.1937
    1DIPC   C1A 5393  21.537  -0.225   5.302 -0.2153 -0.3895  0.1067
    1DIPC   D2A 5394  21.576  -0.276   4.935  0.0771  0.1483 -0.0853
    1DIPC   D3A 5395  21.895  -0.643   4.966  0.1522 -0.1386  0.1449
    1DIPC   C4A 5396  22.107  -0.899   5.334 -0.2284 -0.1582  0.0205
    1DIPC   C1B 5397  21.720   0.445   5.396  0.0663  0.3043 -0.0522
    1DIPC   D2B 5398  21.811   0.747   4.965  0.3050 -0.0782 -0.2390
    1DIPC   D3B 5399  21.405   1.085   4.926 -0.1587  0.0715  0.1725
    1DIPC   C4B 5400  21.321   1.350   4.692 -0.2125 -0.1351  0.3523
    1DIPC   NC3 5401   6.136  10.366   6.752  0.1991 -0.2185 -0.1936
    1DIPC   PO4 5402   5.794  10.193   6.560 -0.4213  0.1287 -0.0580
    1DIPC   GL1 5403   5.719  10.146   6.150  0.1683 -0.1528 -0.1892
    1DIPC   GL2 5404   6.006  10.137   5.871 -0.0118  0.0463  0.0920
    1DIPC   C1A 5405   5.519  10.311   5.717  0.4243 -0.1191  0.2332
    1DIPC   D2A 5406   5.339  10.280   5.299 -0.0656  0.1074 -0.1979
    1DIPC   D3A 5407   5.556  10.603   5.240  0.0077  0.0615  0.0946
    1DIPC   C4A 5408   5.536  10.868   4.945  0.3736  0.0015 -0.1977
    1DIPC   C1B 5409   5.880   9.717   5.832  0.1898  0.2349 -0.1161
    1DIPC   D2B 5410   5.569   9.402   5.661  0.0148 -0.3926 -0.3198
    1DIPC   D3B 5411   5.792   8.955   5.682  0.1143 -0.1083  0.0921
    1DIPC   C4B 5412   5.572   8.535   5.402  0.0150 -0.2929 -0.1342
    1DIPC   NC3 5413   6.128  18.118   6.485  0.1131  0.1333  0.0861
    1DIPC   PO4 5414   6.213  17.723   6.130 -0.2399 -0.2642  0.0479
    1DIPC   GL1 5415   6.348  17.490   5.818  0.2364 -0.1151  0.0190
    1DIPC   GL2 5416   6.630  17.230   5.777  0.1733  0.0122  0.0124
    1DIPC   C1A 5417   6.419  17.499   5.403 -0.1335  0.3735  0.0786
    1DIPC   D2A 5418   6.507  17.437   4.953 -0.2176 -0.0250  0.0641
    1DIPC   D3A 5419   6.594  17.744   4.613  0.2665 -0.2226  0.3324
    1DIPC   C4A 5420   6.326  17.610   4.214 -0.0045  0.0912 -0.1593
    1DIPC   C1B 5421   6.686  17.058   5.327  0.2875 -0.2853 -0.3371
    1DIPC   D2B 5422   6.762  17.060   4.818 -0.1636  0.2800 -0.2616
    1DIPC   D3B 5423   6.624  16.681   4.962 -0.1215  0.0174 -0.0219
    1DIPC   C4B 5424   6.357  16.636   5.251  0.1178 -0.3387  0.2503
    1DIPC   NC3 5425  24.923  20.666   6.923 -0.0103  0.1829  0.0069
    1DIPC   PO4 5426  24.777  21.029   6.645  0.0164  0.0341  0.0223
    1DIPC   GL1 5427  24.647  21.143   6.143 -0.0583 -0.0218  0.1748
    1DIPC   GL2 5428  24.557  21.424   6.177 -0.3130  0.0763  0.0430
    1DIPC   C1A 5429  24.621  21.245   5.693  0.2247  0.2804 -0.2502
    1DIPC   D2A 5430  24.208  21.211   5.417 -0.0695  0.1694 -0.2266
    1DIPC   D3A 5431  24.470  21.355   5.090 -0.1757  0.1902 -0.1149
    1DIPC   C4A 5432  24.171  21.689   4.831 -0.2345  0.2316  0.2059
    1DIPC   C1B 5433  24.193  21.500   5.908 -0.1855  0.1395  0.3283
    1DIPC   D2B 5434  23.897  21.741   5.736 -0.0354 -0.0273  0.1137
    1DIPC   D3B 5435  23.435  21.715   5.768  0.0948 -0.2377 -0.1086
    1DIPC   C4B 5436  23.184  21.858   5.431 -0.1902  0.1851  0.0181
    1DIPC   NC3 5437  10.357  27.182   7.224 -0.0342 -0.0034  0.3457
    1DIPC   PO4 5438   9.885  27.136   7.283 -0.1354  0.1047  0.0073
    1DIPC   GL1 5439   9.844  27.014   6.921 -0.4741  0.0012  0.3964
    1DIPC   GL2 5440  10.023  27.207   6.773 -0.2359 -0.1342  0.2510
    1DIPC   C1A 5441   9.960  26.734   6.595 -0.2756  0.0399 -0.1686
    1DIPC   D2A 5442   9.774  26.460   6.295 -0.2544  0.2028  0.1837
    1DIPC   D3A 5443   9.299  26.443   6.379 -0.1918  0.1014 -0.2564
    1DIPC   C4A 5444   8.915  26.536   6.118 -0.1596 -0.0851  0.4511
    1DIPC   C1B 5445  10.361  27.173   6.377  0.2584  0.0554  0.1348
    1DIPC   D2B 5446  10.218  27.386   5.993 -0.1727 -0.1880 -0.1261
    1DIPC   D3B 5447  10.488  27.742   5.755 -0.1855  0.2660  0.3407
    1DIPC   C4B 5448  10.753  28.110   5.558 -0.0411 -0.1137  0.1045
    1DIPC   NC3 5449   5.906  24.050   6.338 -0.0801 -0.1167 -0.2931
    1DIPC   PO4 5450   5.533  24.281   6.163 -0.0522  0.0949  0.0469
    1DIPC   GL1 5451   5.620  24.498   5.864  0.0275 -0.3141 -0.0054
    1DIPC   GL2 5452   5.875  24.485   5.761  0.1484 -0.1851  0.0135
    1DIPC   C1A 5453   5.586  24.661   5.377 -0.2621 -0.1890  0.0988
    1DIPC   D2A 5454   5.508  24.315   5.118 -0.0407  0.1547 -0.2221
    1DIPC   D3A 5455   5.274  24.350   4.749  0.1763 -0.0844 -0.0090
    1DIPC   C4A 5456   4.970  24.454   4.284 -0.2694 -0.2950  0.2668
    1DIPC   C1B 5457   6.118  24.679   5.489  0.1234 -0.0465  0.0121
    1DIPC   D2B 5458   6.398  24.420   5.158 -0.0594  0.0212  0.2027
    1DIPC   D3B 5459   6.761  24.646   4.993 -0.1579 -0.0653 -0.0837
    1DIPC   C4B 5460   6.974  24.900   5.301  0.0498  0.2354 -0.2761
    1DIPC   NC3 5461  23.474  19.173   6.836  0.0991  0.2669  0.2860
    1DIPC   PO4 5462  23.633  18.799   6.594  0.1473 -0.1336  0.2190
    1DIPC   GL1 5463  23.752  19.083   6.283  0.1473  0.1403 -0.2081
    1DIPC   GL2 5464  23.707  18.915   6.076 -0.2755  0.0406  0.6491
    1DIPC   C1A 5465  23.663  19.403   5.989  0.0902 -0.1579  0.0037
    1DIPC   D2A 5466  23.442  19.427   5.626  0.3228 -0.1044 -0.0791
    1DIPC   D3A 5467  22.971  19.428   5.765  0.0268  0.0972 -0.2035
    1DIPC   C4A 5468  22.678  19.165   5.490  0.0570  0.2165 -0.0222
    1DIPC   C1B 5469  23.734  19.004   5.632  0.0810  0.0824 -0.1856
    1DIPC   D2B 5470  23.619  19.137   5.228 -0.0230  0.2691 -0.2810
    1DIPC   D3B 5471  23.782  19.232   4.796 -0.0475 -0.2991 -0.0883
    1DIPC   C4B 5472  24.135  19.033   4.790 -0.5176 -0.1225  0.0235
    1DIPC   NC3 5473   6.037   1.167   7.049 -0.0910 -0.0009 -0.1018
    1DIPC   PO4 5474   6.233   1.523   6.870  0.4433  0.0306  0.1992
    1DIPC   GL1 5475   6.392   1.601   6.425 -0.0317 -0.0496  0.0309
    1DIPC   GL2 5476   6.462   1.408   6.253  0.0514  0.0823  0.4112
    1DIPC   C1A 5477   6.512   1.938   6.116 -0.0630  0.0848  0.0112
    1DIPC   D2A 5478   6.474   2.152   5.709 -0.1184 -0.1287 -0.3130
    1DIPC   D3A 5479   6.873   2.372   5.928 -0.0518 -0.5114  0.1679
    1DIPC   C4A 5480   7.285   2.219   5.930  0.3331 -0.0070 -0.0210
    1DIPC   C1B 5481   6.694   1.051   6.017 -0.2592 -0.1654  0.3921
    1DIPC   D2B 5482   6.668   0.670   5.647 -0.0445 -0.0531 -0.0048
    1DIPC   D3B 5483   6.892   0.806   5.383  0.0146 -0.3165  0.0933
    1DIPC   C4B 5484   7.119   0.577   5.014 -0.2044 -0.0766 -0.4020
    1DIPC   NC3 5485  28.235  13.530   6.331  0.3166  0.0595 -0.0235
    1DIPC   PO4 5486  28.270  13.153   6.022 -0.0532  0.0177 -0.2324
    1DIPC   GL1 5487  28.499  13.132   5.712  0.1015 -0.4053 -0.0697
    1DIPC   GL2 5488  28.771  13.283   5.876  0.0481 -0.2179  0.1775
    1DIPC   C1A 5489  28.496  12.953   5.308 -0.0031  0.1353  0.1359
    1DIPC   D2A 5490  28.323  12.838   4.973  0.0799  0.0891 -0.1663
    1DIPC   D3A 5491  28.160  12.537   5.280 -0.0053 -0.0286  0.2089
    1DIPC   C4A 5492  28.362  12.149   5.341  0.1615  0.5358 -0.3055
    1DIPC   C1B 5493  29.033  13.064   5.548 -0.0830 -0.1551  0.2206
    1DIPC   D2B 5494  29.456  13.116   5.424  0.0612  0.2308  0.0878
    1DIPC   D3B 5495  29.334  13.494   5.521 -0.1103 -0.0613  0.1468
    1DIPC   C4B 5496  29.167  13.715   5.250  0.1270 -0.2097 -0.0629
    1DIPC   NC3 5497   2.284  22.267   5.842 -0.0178  0.0308 -0.1226
    1DIPC   PO4 5498   2.120  21.959   6.059 -0.2044 -0.0460  0.0100
    1DIPC   GL1 5499   1.947  21.847   5.703  0.0486 -0.0838  0.1595
    1DIPC   GL2 5500   2.261  21.878   5.552 -0.0561 -0.0920  0.2124
    1DIPC   C1A 5501   1.673  21.651   5.445  0.0836 -0.0346  0.0734
    1DIPC   D2A 5502   1.300  21.375   5.527 -0.0092  0.0310  0.0005
    1DIPC   D3A 5503   1.406  21.531   5.089 -0.1042  0.2720 -0.1819
    1DIPC   C4A 5504   1.092  21.756   4.876 -0.3266 -0.1503  0.1545
    1DIPC   C1B 5505   2.246  21.781   5.103 -0.1269 -0.0133 -0.1903
    1DIPC   D2B 5506   2.200  21.675   4.616  0.0073  0.2427 -0.0870
    1DIPC   D3B 5507   2.607  21.963   4.669  0.1031 -0.2323  0.0613
    1DIPC   C4B 5508   2.564  22.431   4.447 -0.3189  0.1379 -0.2244
    1DIPC   NC3 5509   0.138   9.372   6.722  0.5016  0.0443 -0.1028
    1DIPC   PO4 5510   0.205   9.605   6.229  0.0058 -0.0544 -0.1040
    1DIPC   GL1 5511   0.326   9.601   5.826  0.3780  0.3450 -0.0926
    1DIPC   GL2 5512   0.266   9.923   5.679 -0.3097  0.6277  0.1509
    1DIPC   C1A 5513   0.263   9.424   5.471 -0.0744 -0.3063  0.0272
    1DIPC   D2A 5514  -0.032   9.440   5.130  0.1178  0.2622  0.3142
    1DIPC   D3A 5515   0.184   9.475   4.634 -0.2871  0.2304 -0.3386
    1DIPC   C4A 5516   0.254   9.798   4.323 -0.3301  0.2634 -0.1364
    1DIPC   C1B 5517   0.544  10.239   5.897 -0.0968  0.1350  0.0400
    1DIPC   D2B 5518   0.575  10.698   5.929 -0.0471 -0.1887 -0.1997
    1DIPC   D3B 5519   0.484  10.704   5.573  0.0120  0.0341  0.1642
    1DIPC   C4B 5520   0.425  10.436   5.443  0.1029  0.1852 -0.1599
    1DIPC   NC3 5521   1.775  11.843   6.666 -0.1734 -0.2451 -0.0997
    1DIPC   PO4 5522   1.678  12.242   6.422 -0.0314  0.0302  0.0777
    1DIPC   GL1 5523   1.739  12.200   5.997 -0.0790 -0.2823 -0.0084
    1DIPC   GL2 5524   2.064  12.216   5.950  0.1024 -0.0016  0.2382
    1DIPC   C1A 5525   1.709  12.276   5.546 -0.0899  0.1213 -0.0536
    1DIPC   D2A 5526   1.898  11.927   5.128 -0.1918  0.1869 -0.2414
    1DIPC   D3A 5527   1.509  11.929   5.130  0.1580  0.0879 -0.1378
    1DIPC   C4A 5528   1.176  12.239   5.209  0.1351 -0.0336  0.2263
    1DIPC   C1B 5529   2.045  11.918   5.606 -0.0918  0.1909 -0.5919
    1DIPC   D2B 5530   2.293  11.639   5.301  0.0487 -0.0668 -0.3245
    1DIPC   D3B 5531   2.271  11.590   4.917 -0.1319 -0.0340 -0.0523
    1DIPC   C4B 5532   2.203  11.716   4.503 -0.1790  0.0409  0.0058
    1DIPC   NC3 5533  29.352  27.463   6.684  0.0983 -0.1168  0.2670
    1DIPC   PO4 5534  29.298  27.595   6.274  0.0035 -0.0407  0.3476
    1DIPC   GL1 5535  29.243  27.737   5.826  0.1414  0.0240 -0.1068
    1DIPC   GL2 5536  29.360  28.083   5.744  0.1078 -0.3787 -0.0361
    1DIPC   C1A 5537  29.444  27.818   5.329 -0.0105  0.1698  0.3179
    1DIPC   D2A 5538  29.732  28.060   5.074  0.2371 -0.2528  0.0209
    1DIPC   D3A 5539  30.102  28.221   5.126  0.0741  0.3093 -0.0322
    1DIPC   C4A 5540  30.299  28.490   5.460 -0.3307 -0.1927 -0.0248
    1DIPC   C1B 5541  29.459  28.457   5.430 -0.1040 -0.1039 -0.3719
    1DIPC   D2B 5542  29.245  28.615   5.145  0.0658 -0.2856 -0.1486
    1DIPC   D3B 5543  29.694  28.525   4.887  0.2334  0.1209  0.1771
    1DIPC   C4B 5544  29.782  28.827   4.591 -0.2381 -0.5438 -0.1114
    1DIPC   NC3 5545  22.283  22.505   6.977  0.3334 -0.0145 -0.1039
    1DIPC   PO4 5546  22.631  22.589   6.684 -0.1866 -0.2295  0.3256
    1DIPC   GL1 5547  22.553  22.562   6.273 -0.0323  0.2120 -0.2373
    1DIPC   GL2 5548  22.173  22.444   6.198  0.1732  0.1539 -0.2660
    1DIPC   C1A 5549  22.856  22.416   5.971  0.0980 -0.1820 -0.2867
    1DIPC   D2A 5550  22.907  21.945   5.907 -0.4389 -0.5470  0.0195
    1DIPC   D3A 5551  22.822  22.250   5.533  0.3770  0.1223 -0.4030
    1DIPC   C4A 5552  23.170  22.400   5.303  0.2747  0.0838  0.0294
    1DIPC   C1B 5553  21.808  22.340   5.834  0.1601 -0.0351  0.2191
    1DIPC   D2B 5554  21.744  22.061   5.599  0.2513 -0.1600  0.1767
    1DIPC   D3B 5555  21.609  22.421   5.411  0.0826  0.0279  0.0749
    1DIPC   C4B 5556  21.542  22.769   5.672  0.0407  0.1030 -0.1390
    1DIPC   NC3 5557   7.331   3.806   7.102  0.1837  0.0132  0.4057
    1DIPC   PO4 5558   7.223   4.172   7.224 -0.0977  0.0578 -0.0739
    1DIPC   GL1 5559   7.150   4.128   6.740 -0.0942  0.0648  0.1983
    1DIPC   GL2 5560   7.283   3.848   6.564  0.1496 -0.0742  0.2798
    1DIPC   C1A 5561   7.167   4.226   6.250  0.0790  0.0444  0.3367
    1DIPC   D2A 5562   7.253   4.225   5.831  0.0225  0.1299 -0.2384
    1DIPC   D3A 5563   7.585   4.049   5.556 -0.1406 -0.1281  0.1723
    1DIPC   C4A 5564   7.730   4.327   5.282 -0.2048  0.0456 -0.0433
    1DIPC   C1B 5565   7.200   3.642   6.208  0.0187  0.0941  0.0744
    1DIPC   D2B 5566   7.277   3.742   5.762  0.0937  0.0708  0.3259
    1DIPC   D3B 5567   7.088   3.466   5.432 -0.1572 -0.1542  0.0064
    1DIPC   C4B 5568   7.004   3.631   5.004  0.0209  0.2655  0.0623
    1DIPC   NC3 5569  15.337  26.286   7.060  0.1296  0.1612 -0.1393
    1DIPC   PO4 5570  15.632  26.416   6.981 -0.0621 -0.0325  0.2139
    1DIPC   GL1 5571  15.907  26.481   6.595  0.0377 -0.2430  0.3990
    1DIPC   GL2 5572  15.941  26.750   6.492 -0.2308 -0.1915  0.1310
    1DIPC   C1A 5573  16.079  26.445   6.146 -0.1446 -0.2051 -0.1215
    1DIPC   D2A 5574  16.081  26.299   5.700  0.0789  0.0843  0.0157
    1DIPC   D3A 5575  16.054  26.756   5.618  0.1234  0.1139  0.3472
    1DIPC   C4A 5576  16.315  27.002   5.763 -0.2346 -0.2662  0.2113
    1DIPC   C1B 5577  15.957  27.018   6.165 -0.1514  0.0312 -0.1019
    1DIPC   D2B 5578  15.824  27.212   5.759  0.1201 -0.0141  0.1215
    1DIPC   D3B 5579  16.047  27.158   5.278 -0.0372  0.3387  0.0827
    1DIPC   C4B 5580  16.507  26.981   5.255  0.0248 -0.0354 -0.0546
    1DIPC   NC3 5581   4.877   3.730   6.230 -0.1537 -0.0773  0.0776
    1DIPC   PO4 5582   5.200   3.496   6.112 -0.1240 -0.0055  0.1682
    1DIPC   GL1 5583   5.066   3.601   5.658 -0.1225 -0.3482 -0.0924
    1DIPC   GL2 5584   5.251   3.827   5.576 -0.0632 -0.2782 -0.0656
    1DIPC   C1A 5585   5.109   3.411   5.308 -0.2297  0.0996  0.0857
    1DIPC   D2A 5586   5.289   3.314   5.002 -0.2009 -0.1815  0.2181
    1DIPC   D3A 5587   5.151   3.669   4.882  0.0588 -0.2593  0.3047
    1DIPC   C4A 5588   5.257   4.126   4.812 -0.0504 -0.3856  0.0656
    1DIPC   C1B 5589   5.585   4.000   5.216  0.2165 -0.1359  0.0034
    1DIPC   D2B 5590   5.729   4.008   4.733 -0.0586 -0.1529 -0.6004
    1DIPC   D3B 5591   6.157   3.959   4.634 -0.3508  0.0590  0.0063
    1DIPC   C4B 5592   6.458   4.194   4.819 -0.4026 -0.0869 -0.1033
    1DIPC   NC3 5593  26.977  28.061   6.583 -0.3449 -0.0241 -0.1622
    1DIPC   PO4 5594  27.323  27.917   6.580  0.0795 -0.1782  0.1415
    1DIPC   GL1 5595  27.196  27.985   6.139  0.0280  0.0964  0.0627
    1DIPC   GL2 5596  27.212  27.741   6.028  0.0466 -0.0990 -0.1598
    1DIPC   C1A 5597  27.421  28.223   5.781 -0.0081  0.1343  0.3613
    1DIPC   D2A 5598  27.360  28.342   5.317  0.1423 -0.0699  0.0768
    1DIPC   D3A 5599  27.587  28.221   4.966  0.0289 -0.0068  0.1693
    1DIPC   C4A 5600  27.755  27.813   4.762  0.0396 -0.1996 -0.2505
    1DIPC   C1B 5601  27.115  27.821   5.574 -0.0117 -0.2638  0.3441
    1DIPC   D2B 5602  26.965  28.017   5.072  0.0125  0.0006 -0.1523
    1DIPC   D3B 5603  27.371  27.738   5.110  0.0193  0.4768 -0.2929
    1DIPC   C4B 5604  27.600  27.922   5.412  0.2123  0.3134 -0.0286
    1DIPC   NC3 5605   9.160   5.365   7.269 -0.2543 -0.2268  0.3343
    1DIPC   PO4 5606   9.519   5.778   7.102 -0.0745  0.0590  0.2519
    1DIPC   GL1 5607   9.554   5.371   6.932 -0.4094 -0.2157  0.0693
    1DIPC   GL2 5608   9.523   5.102   6.959 -0.2604 -0.0816  0.2512
    1DIPC   C1A 5609   9.877   5.233   6.639  0.0011  0.0505  0.0586
    1DIPC   D2A 5610  10.282   5.185   6.348 -0.0758  0.0968  0.1956
    1DIPC   D3A 5611  10.315   4.781   6.571 -0.2501  0.1095  0.0918
    1DIPC   C4A 5612  10.070   4.395   6.449 -0.1534 -0.1620 -0.3064
    1DIPC   C1B 5613   9.462   4.982   6.555 -0.0457 -0.0183  0.0511
    1DIPC   D2B 5614   9.456   5.113   6.158  0.1109 -0.1392  0.0529
    1DIPC   D3B 5615   9.671   4.935   5.808 -0.0655 -0.2067 -0.1875
    1DIPC   C4B 5616   9.492   4.756   5.475 -0.3271 -0.0470 -0.1147
    1DIPC   NC3 5617   6.751  22.622   6.352  0.0249 -0.0668  0.1830
    1DIPC   PO4 5618   6.808  22.469   5.923 -0.0623  0.2866  0.0665
    1DIPC   GL1 5619   6.978  22.316   5.530 -0.2355 -0.0331  0.4542
    1DIPC   GL2 5620   6.867  22.528   5.263 -0.0283 -0.1808 -0.0812
    1DIPC   C1A 5621   7.019  22.043   5.162 -0.2267 -0.3160  0.6022
    1DIPC   D2A 5622   6.971  22.015   4.735 -0.1422 -0.2276  0.3481
    1DIPC   D3A 5623   7.246  22.353   4.590 -0.0246 -0.2229 -0.1480
    1DIPC   C4A 5624   6.934  22.741   4.554 -0.1847  0.0707  0.0720
    1DIPC   C1B 5625   7.141  22.584   4.987  0.1531 -0.1419  0.0448
    1DIPC   D2B 5626   7.370  22.969   4.776  0.0933  0.0704  0.3740
    1DIPC   D3B 5627   7.354  22.907   4.365  0.4930  0.0725 -0.0313
    1DIPC   C4B 5628   7.125  23.172   4.169  0.3255  0.0456 -0.1347
    1DIPC   NC3 5629   1.330  23.516   6.533 -0.1341  0.0290  0.0650
    1DIPC   PO4 5630   0.939  23.394   6.494  0.0420  0.3587 -0.1034
    1DIPC   GL1 5631   0.843  23.136   6.082  0.4113 -0.0247 -0.0474
    1DIPC   GL2 5632   0.542  23.069   6.043  0.0304 -0.0964  0.1799
    1DIPC   C1A 5633   0.942  23.102   5.675 -0.1433 -0.2714  0.0320
    1DIPC   D2A 5634   1.228  23.104   5.302  0.1748  0.2267 -0.0019
    1DIPC   D3A 5635   1.506  23.332   5.709  0.0201  0.0305  0.0245
    1DIPC   C4A 5636   1.154  23.533   5.875  0.1198  0.1894  0.1025
    1DIPC   C1B 5637   0.464  23.011   5.657  0.1580 -0.1827  0.1257
    1DIPC   D2B 5638   0.377  23.231   5.289 -0.0687  0.3552  0.2219
    1DIPC   D3B 5639   0.439  22.992   4.925 -0.0969  0.0590  0.0385
    1DIPC   C4B 5640   0.407  22.522   4.936  0.0481 -0.1752 -0.0027
    1DIPC   NC3 5641   4.713  29.139   7.028 -0.1604 -0.1891  0.1095
    1DIPC   PO4 5642   4.368  29.286   6.753  0.0258  0.0174  0.2782
    1DIPC   GL1 5643   4.321  29.640   6.410 -0.0480  0.0809  0.1420
    1DIPC   GL2 5644   4.047  29.593   6.089  0.2214 -0.0361 -0.1041
    1DIPC   C1A 5645   4.318  30.037   6.154  0.0291 -0.1175 -0.0348
    1DIPC   D2A 5646   4.430  30.352   5.919  0.0485  0.4074 -0.1557
    1DIPC   D3A 5647   4.580  30.207   5.520 -0.2807  0.3089 -0.0201
    1DIPC   C4A 5648   4.525  30.345   5.210  0.1915 -0.1015 -0.0237
    1DIPC   C1B 5649   4.334  29.803   5.718  0.0123  0.2298  0.1582
    1DIPC   D2B 5650   4.562  29.748   5.284  0.1184  0.0714 -0.0112
    1DIPC   D3B 5651   4.904  29.611   4.940  0.2294 -0.1183 -0.0572
    1DIPC   C4B 5652   4.931  29.495   4.517  0.0298 -0.0636  0.2919
    1DIPC   NC3 5653  27.508  16.390   5.779 -0.2517 -0.3291  0.3480
    1DIPC   PO4 5654  27.382  16.006   5.761  0.1086  0.3847 -0.1710
    1DIPC   GL1 5655  27.371  15.978   5.398 -0.0168  0.1133  0.0171
    1DIPC   GL2 5656  27.273  15.613   5.217  0.1187 -0.1054 -0.2135
    1DIPC   C1A 5657  27.527  16.003   4.968 -0.0703  0.0962  0.4209
    1DIPC   D2A 5658  27.442  15.979   4.661  0.0096 -0.1112  0.1571
    1DIPC   D3A 5659  27.511  16.204   4.394 -0.1365  0.2104  0.0859
    1DIPC   C4A 5660  27.478  16.638   4.455  0.0455  0.3505 -0.3509
    1DIPC   C1B 5661  27.339  15.528   4.808  0.2479  0.0129  0.0285
    1DIPC   D2B 5662  27.356  15.512   4.350 -0.0740  0.1047  0.1665
    1DIPC   D3B 5663  27.625  15.665   4.083 -0.1815  0.0778 -0.0947
    1DIPC   C4B 5664  27.973  15.979   4.317  0.2150 -0.0262 -0.1039
    1DIPC   NC3 5665  23.527   5.241   6.151 -0.2007  0.1214 -0.1333
    1DIPC   PO4 5666  23.343   4.868   5.922 -0.3152  0.4055  0.1324
    1DIPC   GL1 5667  23.308   4.839   5.435 -0.1520 -0.1665 -0.1574
    1DIPC   GL2 5668  23.108   5.122   5.213 -0.1577  0.2487 -0.1501
    1DIPC   C1A 5669  23.166   4.640   5.090  0.0539  0.0513  0.0619
    1DIPC   D2A 5670  22.766   4.406   5.120 -0.2199 -0.3022  0.2286
    1DIPC   D3A 5671  22.449   4.776   5.100 -0.1729 -0.1001 -0.2308
    1DIPC   C4A 5672  22.463   4.907   5.455  0.0751 -0.1821  0.2635
    1DIPC   C1B 5673  23.306   5.488   5.183 -0.1034  0.0300  0.0873
    1DIPC   D2B 5674  23.520   5.778   5.444  0.5440 -0.0168  0.0735
    1DIPC   D3B 5675  23.851   5.771   5.227  0.0319  0.1246  0.1037
    1DIPC   C4B 5676  24.133   5.776   4.816 -0.0549 -0.0095  0.1808
    1DIPC   NC3 5677  15.768   6.786   7.822 -0.0670 -0.2031 -0.1928
    1DIPC   PO4 5678  15.918   7.068   7.577  0.2797 -0.2501 -0.0374
    1DIPC   GL1 5679  16.176   6.960   7.143  0.0407 -0.0411 -0.2002
    1DIPC   GL2 5680  16.313   7.229   7.006  0.0409 -0.1156 -0.1175
    1DIPC   C1A 5681  16.451   6.786   6.755 -0.1486  0.0785 -0.0391
    1DIPC   D2A 5682  16.306   6.551   6.431 -0.1529 -0.0294  0.0220
    1DIPC   D3A 5683  16.378   6.496   5.970  0.0124  0.2782  0.3994
    1DIPC   C4A 5684  16.524   6.141   5.906  0.0605  0.3013  0.0229
    1DIPC   C1B 5685  16.420   7.236   6.515  0.1636  0.0911  0.1858
    1DIPC   D2B 5686  16.450   6.954   6.212 -0.0878 -0.1912 -0.2806
    1DIPC   D3B 5687  16.401   7.175   5.859 -0.0317 -0.0898  0.1742
    1DIPC   C4B 5688  16.598   7.070   5.420 -0.1229 -0.1301 -0.3249
    1DIPC   NC3 5689   5.013  25.302   6.659 -0.1135  0.0602 -0.1021
    1DIPC   PO4 5690   4.639  25.263   6.412  0.0936  0.1860 -0.0281
    1DIPC   GL1 5691   4.961  25.477   6.181  0.0657 -0.0660  0.1237
    1DIPC   GL2 5692   5.072  25.769   6.088  0.1242  0.0031  0.4627
    1DIPC   C1A 5693   4.984  25.337   5.691 -0.0202  0.0635 -0.0153
    1DIPC   D2A 5694   4.920  25.322   5.342  0.0035 -0.0089  0.0565
    1DIPC   D3A 5695   4.553  25.448   5.200  0.0675  0.0211 -0.1599
    1DIPC   C4A 5696   4.539  25.788   5.206 -0.3283 -0.1709 -0.0265
    1DIPC   C1B 5697   5.326  25.920   5.733  0.2135 -0.3270  0.0025
    1DIPC   D2B 5698   5.306  25.692   5.311 -0.2093  0.2354 -0.0455
    1DIPC   D3B 5699   5.520  25.837   4.922  0.2093  0.0218 -0.1720
    1DIPC   C4B 5700   5.852  26.193   4.936  0.1623 -0.1402 -0.2124
    1DIPC   NC3 5701  14.427   8.013   7.778 -0.0883 -0.0642 -0.1870
    1DIPC   PO4 5702  14.559   8.345   7.559  0.2009  0.0695  0.2033
    1DIPC   GL1 5703  14.612   8.029   7.228  0.1506  0.0945  0.0145
    1DIPC   GL2 5704  14.502   7.824   7.285 -0.2619 -0.1859 -0.0487
    1DIPC   C1A 5705  14.771   7.818   6.827 -0.0618  0.1957 -0.1502
    1DIPC   D2A 5706  14.728   7.623   6.477  0.1307  0.0010  0.4508
    1DIPC   D3A 5707  14.378   7.435   6.465  0.1236 -0.1289 -0.2042
    1DIPC   C4A 5708  14.189   7.566   6.101  0.0188 -0.1072  0.0355
    1DIPC   C1B 5709  14.278   7.571   7.002  0.3179 -0.1939  0.2250
    1DIPC   D2B 5710  14.185   7.104   6.879 -0.0354 -0.0102 -0.1488
    1DIPC   D3B 5711  14.272   6.882   6.445 -0.0299 -0.0024  0.2662
    1DIPC   C4B 5712  14.503   7.044   6.141  0.1700  0.0031  0.1486
    1DIPC   NC3 5713  20.049   7.268   6.744  0.0062 -0.1448 -0.2456
    1DIPC   PO4 5714  20.388   7.592   6.711  0.1343 -0.2419  0.1634
    1DIPC   GL1 5715  20.332   7.718   6.369 -0.3769  0.0690  0.0693
    1DIPC   GL2 5716  20.535   7.545   6.195 -0.1777 -0.1507 -0.0657
    1DIPC   C1A 5717  20.371   7.933   5.972 -0.0307 -0.2708  0.1343
    1DIPC   D2A 5718  20.440   7.867   5.485  0.2607 -0.0758 -0.1325
    1DIPC   D3A 5719  20.264   8.089   5.098  0.7173 -0.2063 -0.0515
    1DIPC   C4A 5720  20.457   8.341   4.871 -0.3124  0.1446  0.0931
    1DIPC   C1B 5721  20.894   7.378   6.145  0.2494 -0.1994 -0.1857
    1DIPC   D2B 5722  21.248   7.449   5.873 -0.0599  0.0285  0.2120
    1DIPC   D3B 5723  21.190   7.245   5.548 -0.2876  0.1260  0.1949
    1DIPC   C4B 5724  21.551   7.121   5.252  0.2927  0.1834 -0.1607
    1DIPC   NC3 5725   9.754   9.954   7.456 -0.0496 -0.4040 -0.0227
    1DIPC   PO4 5726  10.073  10.129   7.246 -0.0616  0.3134 -0.0084
    1DIPC   GL1 5727  10.252  10.148   6.863  0.0812  0.1247  0.0158
    1DIPC   GL2 5728  10.489   9.981   6.924 -0.0374 -0.1116 -0.0208
    1DIPC   C1A 5729  10.071  10.240   6.559  0.2192 -0.2162  0.2063
    1DIPC   D2A 5730  10.129  10.270   6.090  0.1634  0.0262  0.0578
    1DIPC   D3A 5731   9.969  10.308   5.712 -0.2081  0.1838  0.0854
    1DIPC   C4A 5732  10.149   9.948   5.427 -0.0178 -0.0861 -0.1606
    1DIPC   C1B 5733  10.758  10.026   6.645 -0.2131  0.2778  0.0014
    1DIPC   D2B 5734  10.903  10.000   6.216 -0.0698 -0.0612  0.0027
    1DIPC   D3B 5735  10.404   9.857   6.157 -0.0931  0.0011 -0.0995
    1DIPC   C4B 5736  10.387   9.624   5.780  0.0203  0.2751  0.0527
    1DIPC   NC3 5737   0.012  15.319   6.107 -0.2759 -0.0274  0.1033
    1DIPC   PO4 5738   0.111  14.872   6.132  0.1536  0.0095  0.3108
    1DIPC   GL1 5739   0.509  14.878   5.847  0.2567  0.0039 -0.2796
    1DIPC   GL2 5740   0.680  14.589   5.594 -0.0399 -0.2498  0.3836
    1DIPC   C1A 5741   0.472  15.080   5.462  0.1195  0.1071  0.0746
    1DIPC   D2A 5742   0.371  15.224   5.066  0.1416  0.2890  0.2397
    1DIPC   D3A 5743   0.573  15.293   4.600  0.3915 -0.0704  0.0420
    1DIPC   C4A 5744   0.675  15.700   4.452 -0.2011  0.2928  0.0241
    1DIPC   C1B 5745   0.642  14.767   5.158 -0.2831 -0.2092 -0.2878
    1DIPC   D2B 5746   0.814  14.845   4.718  0.5300  0.0016 -0.0254
    1DIPC   D3B 5747   0.754  14.506   4.392 -0.3362  0.2895 -0.1066
    1DIPC   C4B 5748   1.201  14.313   4.293  0.0463  0.1979 -0.2791
    1DIPC   NC3 5749   5.332   0.155   6.826 -0.2091  0.0234  0.1417
    1DIPC   PO4 5750   5.633   0.431   6.894 -0.1019 -0.1307  0.1776
    1DIPC   GL1 5751   5.619   0.324   6.492  0.0776 -0.1784  0.0168
    1DIPC   GL2 5752   5.668  -0.012   6.394  0.1402 -0.0070 -0.0303
    1DIPC   C1A 5753   5.928   0.386   6.187 -0.0023  0.1070  0.0740
    1DIPC   D2A 5754   6.238   0.589   5.931 -0.0651 -0.0580  0.2260
    1DIPC   D3A 5755   6.123   0.929   5.685  0.0619  0.1481 -0.1995
    1DIPC   C4A 5756   5.768   0.799   5.389  0.0366 -0.0458  0.0875
    1DIPC   C1B 5757   5.770  -0.050   6.024 -0.1612  0.0033 -0.0473
    1DIPC   D2B 5758   5.768  -0.254   5.615  0.1060  0.0515 -0.2352
    1DIPC   D3B 5759   5.949  -0.028   5.207 -0.1569 -0.0016  0.1690
    1DIPC   C4B 5760   5.691   0.347   5.081  0.0098  0.2416 -0.1745
    1DIPC   NC3 5761  21.902   3.698   6.130  0.1328  0.0558 -0.0109
    1DIPC   PO4 5762  21.475   3.808   6.360 -0.1149 -0.1875 -0.0479
    1DIPC   GL1 5763  21.309   4.089   6.048  0.0909  0.1282  0.0748
    1DIPC   GL2 5764  21.621   4.075   5.928 -0.1202 -0.0494 -0.1457
    1DIPC   C1A 5765  21.117   4.281   5.725 -0.2481 -0.4279  0.0438
    1DIPC   D2A 5766  21.199   4.796   5.435  0.0633 -0.2268  0.0628
    1DIPC   D3A 5767  20.972   4.906   5.056  0.2547 -0.1293 -0.0877
    1DIPC   C4A 5768  20.826   5.290   5.129  0.1378  0.0875 -0.1720
    1DIPC   C1B 5769  21.480   3.959   5.550 -0.3074 -0.0509  0.0689
    1DIPC   D2B 5770  21.318   4.005   5.137 -0.1536  0.0428 -0.0632
    1DIPC   D3B 5771  21.134   3.582   4.949 -0.2203  0.1121  0.0039
    1DIPC   C4B 5772  20.972   3.703   4.519 -0.0501  0.2490 -0.1852
    1DIPC   NC3 5773  29.204  13.614   6.171  0.0568 -0.0701  0.5877
    1DIPC   PO4 5774  29.615  13.498   6.316  0.3197 -0.4705  0.1984
    1DIPC   GL1 5775  29.698  13.519   5.876 -0.1411 -0.3442 -0.1224
    1DIPC   GL2 5776  29.765  13.308   5.811  0.0065 -0.1881  0.2943
    1DIPC   C1A 5777  29.772  13.705   5.411  0.0608  0.2040  0.0504
    1DIPC   D2A 5778  29.977  13.765   5.029 -0.0179  0.0826 -0.1384
    1DIPC   D3A 5779  29.532  13.792   4.957  0.3399 -0.0727  0.0039
    1DIPC   C4A 5780  29.437  13.899   4.550  0.0671  0.1474  0.3602
    1DIPC   C1B 5781  30.051  13.267   5.424  0.0587 -0.5591 -0.1283
    1DIPC   D2B 5782  30.211  13.304   4.977  0.0829  0.0725  0.0799
    1DIPC   D3B 5783  30.029  13.464   4.646  0.0078  0.1702  0.3599
    1DIPC   C4B 5784  29.834  13.415   4.310 -0.1095  0.0052  0.0412
    1DIPC   NC3 5785  29.084  12.224   6.872 -0.3057 -0.0159 -0.2993
    1DIPC   PO4 5786  29.130  12.279   6.360  0.1027 -0.2620  0.0294
    1DIPC   GL1 5787  29.411  12.458   6.053 -0.0974  0.0661  0.1287
    1DIPC   GL2 5788  29.395  12.236   5.863  0.3204 -0.1532  0.2371
    1DIPC   C1A 5789  29.348  12.646   5.616  0.2221  0.0640 -0.1172
    1DIPC   D2A 5790  29.284  12.700   5.240 -0.0509 -0.2370  0.2157
    1DIPC   D3A 5791  29.486  12.889   4.959 -0.0948 -0.4908  0.0793
    1DIPC   C4A 5792  29.719  13.303   5.016 -0.4137  0.0834 -0.0733
    1DIPC   C1B 5793  29.591  12.208   5.473  0.0488 -0.1015 -0.4451
    1DIPC   D2B 5794  29.541  12.342   5.014 -0.1609  0.2503  0.2700
    1DIPC   D3B 5795  29.724  12.040   4.670 -0.2863  0.2162 -0.1578
    1DIPC   C4B 5796  30.034  12.032   4.333  0.0480  0.3341 -0.0308
    1DIPC   NC3 5797  27.521  17.393   6.280 -0.0058 -0.1629  0.2918
    1DIPC   PO4 5798  27.816  17.163   5.987  0.0972  0.1777 -0.2147
    1DIPC   GL1 5799  28.034  17.215   5.576  0.1277 -0.3982  0.0264
    1DIPC   GL2 5800  27.996  17.537   5.520  0.1500 -0.0185  0.0964
    1DIPC   C1A 5801  28.063  16.861   5.308 -0.2555 -0.1874  0.3313
    1DIPC   D2A 5802  27.709  16.438   5.225  0.1302  0.0115 -0.0688
    1DIPC   D3A 5803  27.678  16.430   4.917 -0.1438 -0.0172  0.1176
    1DIPC   C4A 5804  28.100  16.553   4.945  0.0367  0.2049  0.0175
    1DIPC   C1B 5805  28.153  17.346   5.149 -0.1026 -0.1929  0.1484
    1DIPC   D2B 5806  28.236  17.395   4.683  0.1617  0.1378 -0.3769
    1DIPC   D3B 5807  28.688  17.585   4.513 -0.2742 -0.1960  0.0952
    1DIPC   C4B 5808  28.954  17.393   4.648 -0.5467  0.1905  0.0307
    1DIPC   NC3 5809   7.982  17.920   6.805 -0.0654  0.2900  0.3915
    1DIPC   PO4 5810   7.845  17.699   6.359  0.1139  0.1127  0.0237
    1DIPC   GL1 5811   7.754  17.498   5.945 -0.2545 -0.2572 -0.2341
    1DIPC   GL2 5812   7.714  17.192   5.972  0.2206 -0.2141 -0.1972
    1DIPC   C1A 5813   7.405  17.458   5.659 -0.0310 -0.1016 -0.0366
    1DIPC   D2A 5814   6.997  17.435   5.400 -0.0236 -0.1629  0.1927
    1DIPC   D3A 5815   7.126  17.849   5.590  0.1568 -0.0844  0.2543
    1DIPC   C4A 5816   7.246  18.220   5.451  0.1330 -0.2143 -0.1411
    1DIPC   C1B 5817   8.102  17.054   5.947 -0.3214 -0.0568  0.0407
    1DIPC   D2B 5818   8.426  17.141   6.073  0.1507 -0.1179 -0.4142
    1DIPC   D3B 5819   8.456  17.159   5.547 -0.1458 -0.1499 -0.2033
    1DIPC   C4B 5820   8.618  17.013   5.128  0.0190  0.0254 -0.0027
    1DIPC   NC3 5821   7.409  10.115   7.621 -0.0330 -0.1226 -0.1787
    1DIPC   PO4 5822   7.414  10.241   7.089 -0.0684 -0.0290 -0.0785
    1DIPC   GL1 5823   7.577  10.224   6.615 -0.1475  0.0633 -0.2035
    1DIPC   GL2 5824   7.374  10.070   6.504  0.1361 -0.0579 -0.1745
    1DIPC   C1A 5825   7.900  10.524   6.301  0.1256  0.0083  0.1555
    1DIPC   D2A 5826   8.108  10.762   6.041 -0.0275  0.0443 -0.0334
    1DIPC   D3A 5827   8.438  10.586   5.837  0.0628  0.2989 -0.0116
    1DIPC   C4A 5828   8.353  10.546   5.336  0.3629 -0.0191  0.1743
    1DIPC   C1B 5829   7.616  10.133   6.111 -0.3158 -0.0905  0.4570
    1DIPC   D2B 5830   7.820  10.360   5.792 -0.0757 -0.2285 -0.1150
    1DIPC   D3B 5831   7.869  10.151   5.480  0.0442 -0.0843  0.0963
    1DIPC   C4B 5832   8.219   9.973   5.147 -0.3630 -0.1804 -0.2389
    1DIPC   NC3 5833  26.356  16.885   6.151 -0.0285  0.0077  0.3192
    1DIPC   PO4 5834  26.797  16.971   6.081 -0.3633  0.1442 -0.2185
    1DIPC   GL1 5835  26.729  17.202   5.710  0.1510  0.1401  0.2335
    1DIPC   GL2 5836  26.453  16.927   5.661  0.0040  0.0797  0.1704
    1DIPC   C1A 5837  26.953  17.354   5.310 -0.2186  0.1114  0.2338
    1DIPC   D2A 5838  26.892  17.646   4.959 -0.0782  0.1589  0.2734
    1DIPC   D3A 5839  27.235  17.381   4.602 -0.1025 -0.0239 -0.0280
    1DIPC   C4A 5840  27.092  16.932   4.640  0.2097 -0.1111 -0.1986
    1DIPC   C1B 5841  26.567  16.879   5.191 -0.1329 -0.0487  0.0874
    1DIPC   D2B 5842  26.783  16.664   4.915  0.1143 -0.0472 -0.0101
    1DIPC   D3B 5843  26.603  16.484   4.571  0.0765  0.2262 -0.0875
    1DIPC   C4B 5844  26.647  16.132   4.257 -0.1049 -0.0726 -0.2103
    1DIPC   NC3 5845  14.975  24.760   7.345  0.0901  0.1513 -0.0821
    1DIPC   PO4 5846  14.979  24.532   6.910 -0.0291  0.4445 -0.1684
    1DIPC   GL1 5847  15.118  24.454   6.475  0.0161  0.1195 -0.2518
    1DIPC   GL2 5848  15.308  24.687   6.362  0.0040  0.2891  0.3076
    1DIPC   C1A 5849  15.281  24.188   6.189  0.0897 -0.2294 -0.1203
    1DIPC   D2A 5850  15.627  23.972   5.963  0.0045  0.1153  0.0849
    1DIPC   D3A 5851  15.465  23.896   5.492  0.2042  0.2160 -0.2577
    1DIPC   C4A 5852  15.620  23.798   5.191  0.0942 -0.0993  0.0556
    1DIPC   C1B 5853  15.208  24.596   5.990 -0.0444 -0.2743  0.1929
    1DIPC   D2B 5854  15.052  24.671   5.572  0.4447  0.1823  0.0111
    1DIPC   D3B 5855  15.007  24.222   5.249 -0.0460 -0.1496 -0.3895
    1DIPC   C4B 5856  15.220  24.087   4.982 -0.0709  0.1532 -0.1286
    1DIPC   NC3 5857  12.081   2.453   7.400 -0.1130  0.1624 -0.0312
    1DIPC   PO4 5858  12.319   2.864   7.367  0.2055 -0.1007 -0.0950
    1DIPC   GL1 5859  12.141   2.824   7.027 -0.0100  0.0924 -0.1687
    1DIPC   GL2 5860  11.831   2.737   7.087  0.2690  0.1879 -0.0403
    1DIPC   C1A 5861  11.771   3.047   6.806  0.0346  0.3444  0.0787
    1DIPC   D2A 5862  11.718   3.206   6.413  0.0427 -0.0988  0.3116
    1DIPC   D3A 5863  11.816   2.936   6.087 -0.5145 -0.3266  0.1158
    1DIPC   C4A 5864  11.665   3.114   5.729 -0.4062 -0.0321 -0.1096
    1DIPC   C1B 5865  11.457   2.469   6.986  0.1011  0.0548 -0.0141
    1DIPC   D2B 5866  10.989   2.404   7.088  0.0083 -0.0745  0.0076
    1DIPC   D3B 5867  10.773   2.819   7.031 -0.2101 -0.0211 -0.0741
    1DIPC   C4B 5868  10.919   2.936   6.616 -0.2094  0.1423  0.1512
    1DIPC   NC3 5869   0.426  13.985   6.281 -0.2257  0.1409  0.0724
    1DIPC   PO4 5870  -0.002  13.999   5.893 -0.0229 -0.2514 -0.0927
    1DIPC   GL1 5871   0.089  14.085   5.395 -0.0502 -0.1209  0.0370
    1DIPC   GL2 5872   0.448  14.253   5.205 -0.0895  0.5818  0.1991
    1DIPC   C1A 5873  -0.054  14.227   4.986  0.1075 -0.1558 -0.1084
    1DIPC   D2A 5874  -0.089  14.513   4.596 -0.4558 -0.2027 -0.0626
    1DIPC   D3A 5875   0.256  14.405   4.311 -0.0598  0.2090 -0.5932
    1DIPC   C4A 5876   0.447  14.654   3.987  0.0042 -0.0304  0.1090
    1DIPC   C1B 5877   0.372  14.420   4.812 -0.1587 -0.1770 -0.2442
    1DIPC   D2B 5878   0.328  14.781   4.731 -0.1551  0.2505 -0.2841
    1DIPC   D3B 5879   0.265  15.017   4.322  0.0798  0.2668 -0.1937
    1DIPC   C4B 5880   0.312  15.475   4.219  0.2288  0.1382  0.0926
    1DIPC   NC3 5881   2.615  23.997   6.462 -0.0952  0.0619  0.1460
    1DIPC   PO4 5882   2.665  23.708   6.142  0.5134  0.4092 -0.2933
    1DIPC   GL1 5883   2.709  23.679   5.752 -0.2829 -0.0012  0.2038
    1DIPC   GL2 5884   2.744  23.395   5.530 -0.3693 -0.4386  0.1843
    1DIPC   C1A 5885   2.684  24.048   5.445 -0.1074 -0.1469 -0.1466
    1DIPC   D2A 5886   2.473  24.370   5.323 -0.2033  0.1263  0.1193
    1DIPC   D3A 5887   2.629  24.700   5.280 -0.3720 -0.1130  0.2045
    1DIPC   C4A 5888   2.557  24.781   4.861 -0.1026 -0.2750 -0.2211
    1DIPC   C1B 5889   2.644  23.585   5.103  0.0384  0.1018 -0.1682
    1DIPC   D2B 5890   2.597  23.907   4.754  0.2760 -0.0747  0.1241
    1DIPC   D3B 5891   2.136  23.823   4.644  0.1524 -0.0739  0.1799
    1DIPC   C4B 5892   1.837  23.583   4.449 -0.0548 -0.0936  0.0109
    1DIPC   NC3 5893   2.300   2.605   6.831 -0.1848 -0.1779  0.4907
    1DIPC   PO4 5894   2.294   2.695   6.449  0.1452 -0.0672 -0.0485
    1DIPC   GL1 5895   2.264   2.434   6.071  0.0537 -0.0999 -0.1303
    1DIPC   GL2 5896   2.081   2.129   6.067  0.0060 -0.1276 -0.2108
    1DIPC   C1A 5897   2.419   2.411   5.653 -0.1247  0.0900 -0.0401
    1DIPC   D2A 5898   2.401   2.452   5.218  0.2709 -0.0440 -0.1330
    1DIPC   D3A 5899   2.210   2.556   4.838 -0.0403 -0.0543 -0.3250
    1DIPC   C4A 5900   1.777   2.605   4.876  0.3059  0.2029  0.0367
    1DIPC   C1B 5901   1.905   2.316   5.732 -0.3389  0.0090  0.0555
    1DIPC   D2B 5902   1.899   2.155   5.245  0.0990  0.0265 -0.1417
    1DIPC   D3B 5903   1.629   2.121   4.855 -0.1422  0.0003 -0.0422
    1DIPC   C4B 5904   1.936   2.185   4.508 -0.2632 -0.1525  0.0534
    1DIPC   NC3 5905  28.273   9.111   6.124  0.0482 -0.3467  0.5951
    1DIPC   PO4 5906  28.451   8.766   6.162  0.1823  0.1339 -0.1120
    1DIPC   GL1 5907  28.437   8.867   5.712  0.1493 -0.0885 -0.1961
    1DIPC   GL2 5908  28.553   8.986   5.624  0.0377 -0.1939 -0.0606
    1DIPC   C1A 5909  28.117   8.635   5.523 -0.2265 -0.0905  0.0989
    1DIPC   D2A 5910  27.839   8.426   5.609  0.1487 -0.1418  0.0663
    1DIPC   D3A 5911  27.577   8.699   5.388 -0.0194 -0.3815 -0.1833
    1DIPC   C4A 5912  27.629   8.693   5.001  0.1418 -0.2136  0.3539
    1DIPC   C1B 5913  28.561   9.012   5.199  0.3060  0.0453 -0.3051
    1DIPC   D2B 5914  28.852   9.134   4.852  0.0313 -0.0003  0.1735
    1DIPC   D3B 5915  29.045   8.771   4.747 -0.0989 -0.0411  0.2800
    1DIPC   C4B 5916  29.488   8.841   4.796 -0.0960  0.1854  0.2349
    1DIPC   NC3 5917  25.314  26.877   6.986  0.2160 -0.2568  0.1720
    1DIPC   PO4 5918  25.393  26.940   6.579 -0.2682  0.0743 -0.0356
    1DIPC   GL1 5919  25.385  26.991   6.110 -0.0651 -0.0540  0.0376
    1DIPC   GL2 5920  25.110  26.858   6.000  0.1334  0.0477  0.0145
    1DIPC   C1A 5921  25.251  27.364   5.793  0.2690 -0.2492  0.1473
    1DIPC   D2A 5922  24.991  27.749   5.823 -0.4099  0.1032 -0.1251
    1DIPC   D3A 5923  24.923  27.714   5.442 -0.2317 -0.2112  0.0085
    1DIPC   C4A 5924  25.191  27.415   5.289  0.1093 -0.0257 -0.1618
    1DIPC   C1B 5925  25.413  26.881   5.621  0.1928 -0.0244 -0.1079
    1DIPC   D2B 5926  25.624  26.912   5.217 -0.1328  0.0768 -0.1343
    1DIPC   D3B 5927  25.918  26.720   5.396  0.0943  0.0728  0.1760
    1DIPC   C4B 5928  26.237  26.894   5.711 -0.1832  0.3508 -0.0773
    1DIPC   NC3 5929   6.474  15.723   6.240  0.1303 -0.1831  0.1147
    1DIPC   PO4 5930   6.126  15.970   6.301 -0.1032  0.0569 -0.0052
    1DIPC   GL1 5931   6.261  16.056   5.912 -0.1903  0.0608  0.0776
    1DIPC   GL2 5932   6.685  15.959   5.815 -0.1256  0.0710 -0.0057
    1DIPC   C1A 5933   6.096  16.095   5.586 -0.0016  0.6492  0.0276
    1DIPC   D2A 5934   5.739  16.191   5.297  0.2175 -0.2189  0.2249
    1DIPC   D3A 5935   6.082  16.235   5.052 -0.0964  0.2975 -0.1849
    1DIPC   C4A 5936   6.161  16.706   4.761  0.0779  0.2537  0.1646
    1DIPC   C1B 5937   6.424  15.706   5.617  0.0187 -0.0227  0.1465
    1DIPC   D2B 5938   6.260  15.785   5.155  0.0293 -0.0319 -0.0056
    1DIPC   D3B 5939   6.390  15.298   5.101  0.0363  0.0449  0.1066
    1DIPC   C4B 5940   6.510  15.238   5.537 -0.2094 -0.1850  0.1722
    1DIPC   NC3 5941  28.562  18.539   6.066  0.1552  0.1158  0.1510
    1DIPC   PO4 5942  28.194  18.558   5.814 -0.0443 -0.0219  0.0205
    1DIPC   GL1 5943  28.411  18.180   5.696 -0.1614 -0.1321  0.2119
    1DIPC   GL2 5944  28.102  18.060   5.606  0.2007  0.0406  0.0639
    1DIPC   C1A 5945  28.817  18.081   5.629  0.0012 -0.0142 -0.0396
    1DIPC   D2A 5946  29.307  18.261   5.650  0.2025  0.1304  0.1452
    1DIPC   D3A 5947  29.447  18.344   5.308 -0.1959 -0.0124 -0.2545
    1DIPC   C4A 5948  29.427  17.966   4.873 -0.0697  0.1280  0.0529
    1DIPC   C1B 5949  28.003  17.871   5.162 -0.0032  0.1626 -0.1532
    1DIPC   D2B 5950  27.767  17.608   4.829  0.0355  0.1658  0.0315
    1DIPC   D3B 5951  27.989  17.769   4.490 -0.0100  0.0120 -0.1438
    1DIPC   C4B 5952  28.381  17.960   4.497  0.1984 -0.0223 -0.1235
    1DIPC   NC3 5953  27.070  17.913   6.061 -0.1272 -0.4370 -0.0589
    1DIPC   PO4 5954  26.667  17.758   6.135 -0.0275 -0.2708 -0.0811
    1DIPC   GL1 5955  26.667  17.976   5.722  0.1163 -0.3015 -0.1286
    1DIPC   GL2 5956  26.628  17.687   5.595  0.4247  0.0416  0.3174
    1DIPC   C1A 5957  26.804  18.011   5.256 -0.3703 -0.1138  0.0472
    1DIPC   D2A 5958  27.154  18.071   4.905 -0.0389  0.1966 -0.2700
    1DIPC   D3A 5959  27.363  17.659   5.050 -0.2090  0.2839 -0.1920
    1DIPC   C4A 5960  27.600  17.451   5.311  0.3489 -0.2218  0.0946
    1DIPC   C1B 5961  26.202  17.804   5.561 -0.1150  0.1001  0.4545
    1DIPC   D2B 5962  25.990  17.966   5.052 -0.1781  0.0692  0.1179
    1DIPC   D3B 5963  26.022  18.290   4.833  0.0891  0.3790 -0.0284
    1DIPC   C4B 5964  25.578  18.311   4.671 -0.2155 -0.1151 -0.1248
    1DIPC   NC3 5965   4.516   0.383   6.899  0.0158  0.2042  0.1663
    1DIPC   PO4 5966   4.859   0.324   6.771  0.0240  0.1107  0.1639
    1DIPC   GL1 5967   4.902   0.156   6.420  0.1456 -0.0633  0.2814
    1DIPC   GL2 5968   5.150   0.032   6.351 -0.1287 -0.3405 -0.3351
    1DIPC   C1A 5969   4.754   0.083   6.015  0.2076 -0.1583  0.0690
    1DIPC   D2A 5970   4.986   0.203   5.549  0.2680  0.2138 -0.0960
    1DIPC   D3A 5971   5.258   0.115   5.273 -0.0350  0.0822 -0.3173
    1DIPC   C4A 5972   5.663   0.217   5.546 -0.0701 -0.0673 -0.0084
    1DIPC   C1B 5973   5.261   0.369   6.060  0.2674 -0.4070  0.0181
    1DIPC   D2B 5974   4.974   0.621   5.788 -0.2656  0.0546 -0.1206
    1DIPC   D3B 5975   4.800   0.653   6.242  0.1428  0.0459  0.0747
    1DIPC   C4B 5976   4.673   0.980   6.430  0.2156 -0.0429 -0.0732
    1DIPC   NC3 5977  27.418  24.645   6.869 -0.1348  0.2063  0.0233
    1DIPC   PO4 5978  27.571  24.980   6.727 -0.1156 -0.3225  0.0975
    1DIPC   GL1 5979  27.269  25.150   6.290 -0.1031  0.1245 -0.0749
    1DIPC   GL2 5980  27.228  25.441   6.140 -0.1546  0.1469 -0.2509
    1DIPC   C1A 5981  26.875  25.035   6.115 -0.3070 -0.0943  0.0135
    1DIPC   D2A 5982  26.678  24.752   5.858  0.1654  0.1791 -0.1253
    1DIPC   D3A 5983  26.828  24.939   5.563 -0.1957  0.3015  0.1737
    1DIPC   C4A 5984  27.152  24.771   5.281  0.0832 -0.2834  0.1853
    1DIPC   C1B 5985  26.860  25.432   5.797 -0.0287 -0.5072 -0.2800
    1DIPC   D2B 5986  26.603  25.461   5.359  0.2076  0.2706  0.2729
    1DIPC   D3B 5987  26.779  25.655   5.008 -0.2136 -0.2014 -0.1972
    1DIPC   C4B 5988  27.023  25.675   4.626  0.2145 -0.1135  0.2616
    1DIPC   NC3 5989   4.680   5.488   6.320  0.0219 -0.2196 -0.2063
    1DIPC   PO4 5990   5.063   5.623   6.569  0.2460 -0.1589  0.0890
    1DIPC   GL1 5991   5.130   5.528   6.054 -0.3613 -0.0860 -0.0607
    1DIPC   GL2 5992   5.537   5.360   5.960  0.0617 -0.0813 -0.0969
    1DIPC   C1A 5993   4.973   5.827   5.695  0.0728 -0.1179  0.1464
    1DIPC   D2A 5994   4.896   6.014   5.333  0.2643  0.2234 -0.1017
    1DIPC   D3A 5995   4.660   5.703   5.170 -0.0538  0.1851 -0.0609
    1DIPC   C4A 5996   4.623   5.216   5.311 -0.0879  0.3545 -0.1068
    1DIPC   C1B 5997   5.716   4.920   6.023  0.2766 -0.2416 -0.2309
    1DIPC   D2B 5998   5.821   4.558   6.015 -0.0420  0.3121  0.0299
    1DIPC   D3B 5999   6.206   4.660   5.893  0.3875 -0.3331 -0.0186
    1DIPC   C4B 6000   6.495   4.703   5.626  0.1376  0.0691  0.2331
    1DIPC   NC3 6001  24.768  23.763   6.429 -0.3938 -0.0054  0.1501
    1DIPC   PO4 6002  24.469  23.503   6.528  0.1514 -0.2547  0.1621
    1DIPC   GL1 6003  24.203  23.327   6.137  0.1501 -0.0215  0.0333
    1DIPC   GL2 6004  24.234  23.063   6.250  0.0221  0.1842  0.1067
    1DIPC   C1A 6005  24.304  23.567   5.687 -0.1284  0.1305  0.1219
    1DIPC   D2A 6006  24.417  23.978   5.590 -0.0892  0.3025 -0.2968
    1DIPC   D3A 6007  24.189  24.087   5.309 -0.0184  0.0713 -0.0217
    1DIPC   C4A 6008  23.998  23.564   5.191 -0.0841  0.1143 -0.0732
    1DIPC   C1B 6009  24.026  22.962   5.822  0.0007 -0.2998  0.2542
    1DIPC   D2B 6010  23.776  22.674   5.711 -0.0711  0.3488 -0.1760
    1DIPC   D3B 6011  24.136  22.646   5.376  0.0953 -0.0270 -0.4187
    1DIPC   C4B 6012  24.081  22.615   4.908 -0.3512  0.0050  0.0036
    1DIPC   NC3 6013  10.624  20.300   6.855  0.0981 -0.1372  0.0264
    1DIPC   PO4 6014  10.459  20.565   6.621 -0.1490 -0.1389  0.0049
    1DIPC   GL1 6015  10.418  20.627   6.135 -0.1512 -0.2867  0.1120
    1DIPC   GL2 6016  10.774  20.534   6.094 -0.2058 -0.2333  0.1320
    1DIPC   C1A 6017  10.166  20.562   5.850  0.4480 -0.1772  0.3266
    1DIPC   D2A 6018   9.910  20.460   5.476  0.1000  0.1160 -0.0454
    1DIPC   D3A 6019   9.943  20.229   5.142  0.1911  0.0005 -0.1558
    1DIPC   C4A 6020  10.169  19.923   5.156 -0.0720 -0.1172 -0.0574
    1DIPC   C1B 6021  10.637  20.506   5.668  0.1541 -0.0607  0.1587
    1DIPC   D2B 6022  10.374  20.348   5.363  0.3358 -0.1012 -0.0920
    1DIPC   D3B 6023  10.285  20.035   5.674  0.2665  0.0045  0.1163
    1DIPC   C4B 6024  10.468  20.135   5.963 -0.0843 -0.5016 -0.6059
    1DIPC   NC3 6025   6.369  21.258   6.368 -0.2002  0.3293 -0.1768
    1DIPC   PO4 6026   6.580  20.905   6.058 -0.2442 -0.1913 -0.2294
    1DIPC   GL1 6027   6.450  20.765   5.588  0.2261 -0.0538 -0.1083
    1DIPC   GL2 6028   6.361  20.995   5.351  0.0526 -0.0429  0.0778
    1DIPC   C1A 6029   6.678  20.760   5.102  0.1437 -0.1609 -0.0128
    1DIPC   D2A 6030   6.851  21.107   4.798  0.0888 -0.2734 -0.2468
    1DIPC   D3A 6031   6.936  21.021   4.392  0.0507  0.1594  0.1480
    1DIPC   C4A 6032   6.925  20.667   4.032 -0.0455 -0.2387 -0.2617
    1DIPC   C1B 6033   6.371  21.207   4.964  0.1983  0.1420  0.0774
    1DIPC   D2B 6034   6.089  21.140   4.617  0.3339  0.0393  0.0718
    1DIPC   D3B 6035   6.469  20.990   4.526  0.1604 -0.2026  0.4064
    1DIPC   C4B 6036   6.413  20.713   4.187 -0.3214  0.1580  0.0226
    1DIPC   NC3 6037  23.842  20.940   6.714 -0.0720 -0.1303 -0.0307
    1DIPC   PO4 6038  23.875  20.530   6.938  0.1585  0.1065  0.0241
    1DIPC   GL1 6039  23.691  20.447   6.491 -0.1856  0.2534  0.1068
    1DIPC   GL2 6040  23.804  20.668   6.272  0.2499 -0.0295  0.3283
    1DIPC   C1A 6041  23.576  20.230   6.154 -0.1592 -0.1899  0.0318
    1DIPC   D2A 6042  23.404  19.939   5.830  0.2320 -0.1835 -0.2726
    1DIPC   D3A 6043  23.502  19.852   5.352  0.1650 -0.0980 -0.2039
    1DIPC   C4A 6044  23.567  19.880   4.912  0.5390  0.0603  0.2518
    1DIPC   C1B 6045  24.123  20.427   6.167 -0.1587  0.2268 -0.1415
    1DIPC   D2B 6046  24.465  20.165   5.945 -0.0496  0.2606 -0.0676
    1DIPC   D3B 6047  24.548  20.242   5.542  0.4842 -0.0996  0.3282
    1DIPC   C4B 6048  24.676  19.903   5.202  0.0254 -0.3266  0.0698
    1DIPC   NC3 6049  21.757   5.039   6.454 -0.1447  0.0570 -0.0063
    1DIPC   PO4 6050  21.360   4.768   6.396 -0.1476 -0.0492  0.1552
    1DIPC   GL1 6051  21.355   4.709   5.983 -0.0234 -0.1432 -0.1727
    1DIPC   GL2 6052  21.529   4.933   5.902 -0.0765 -0.1397  0.1798
    1DIPC   C1A 6053  21.576   4.489   5.614  0.0450 -0.2724  0.1659
    1DIPC   D2A 6054  21.500   4.416   5.254 -0.2398 -0.2325  0.2768
    1DIPC   D3A 6055  21.483   4.369   4.835 -0.1165 -0.1822 -0.0630
    1DIPC   C4A 6056  21.320   4.017   4.633  0.2774  0.1777 -0.2995
    1DIPC   C1B 6057  21.547   5.197   5.571  0.0372 -0.0054  0.3400
    1DIPC   D2B 6058  21.302   5.321   5.347 -0.1208 -0.1412 -0.3008
    1DIPC   D3B 6059  21.280   5.275   4.893 -0.3578 -0.1266  0.4549
    1DIPC   C4B 6060  21.649   5.300   4.670 -0.0663 -0.3819 -0.1293
    1DIPC   NC3 6061   8.687  18.555   6.326 -0.2333 -0.2420  0.1862
    1DIPC   PO4 6062   8.315  18.576   6.202 -0.3293 -0.2451 -0.0075
    1DIPC   GL1 6063   8.280  18.636   5.823  0.0984  0.0674  0.0191
    1DIPC   GL2 6064   7.995  18.571   5.673  0.0501 -0.1164  0.1120
    1DIPC   C1A 6065   8.410  18.659   5.409  0.1434  0.1262 -0.1401
    1DIPC   D2A 6066   8.324  18.879   5.085 -0.0552 -0.3874 -0.0054
    1DIPC   D3A 6067   8.112  18.680   4.739  0.4255 -0.3274  0.0960
    1DIPC   C4A 6068   8.134  18.809   4.328 -0.0711  0.1081 -0.3095
    1DIPC   C1B 6069   7.910  18.930   5.487  0.0154  0.0299  0.0754
    1DIPC   D2B 6070   7.843  19.411   5.643  0.1540  0.0389 -0.0941
    1DIPC   D3B 6071   8.291  19.212   5.471  0.1456 -0.2808  0.3244
    1DIPC   C4B 6072   8.648  19.234   5.176  0.0209  0.0967 -0.5660
    1DIPC   NC3 6073   1.731   1.866   6.858  0.3794 -0.0164 -0.1006
    1DIPC   PO4 6074   1.713   2.234   6.643  0.0695  0.0818  0.0731
    1DIPC   GL1 6075   1.559   2.472   6.401  0.0837  0.1577 -0.1573
    1DIPC   GL2 6076   1.775   2.550   6.221  0.2368  0.3711 -0.3184
    1DIPC   C1A 6077   1.460   2.380   5.931 -0.1051  0.1409  0.0842
    1DIPC   D2A 6078   1.359   2.160   5.609  0.0006 -0.0331 -0.3145
    1DIPC   D3A 6079   0.927   2.215   5.394  0.1903 -0.1905  0.2732
    1DIPC   C4A 6080   0.755   1.808   5.177  0.1360 -0.1560  0.1727
    1DIPC   C1B 6081   1.588   2.802   5.832 -0.3042  0.2257 -0.1443
    1DIPC   D2B 6082   1.271   3.111   5.795 -0.0082 -0.2214 -0.1782
    1DIPC   D3B 6083   1.305   3.477   5.552  0.1997  0.2760  0.0002
    1DIPC   C4B 6084   1.405   3.562   5.034  0.3284 -0.0891 -0.1595
    1DIPC   NC3 6085  25.880  27.077   6.325  0.3103 -0.2545 -0.1952
    1DIPC   PO4 6086  25.599  27.401   6.440 -0.1433  0.1860 -0.2339
    1DIPC   GL1 6087  25.700  27.496   5.962 -0.0531 -0.1057  0.0150
    1DIPC   GL2 6088  25.890  27.234   5.869 -0.1813  0.1763 -0.1999
    1DIPC   C1A 6089  25.559  27.697   5.504  0.2437  0.0362 -0.3868
    1DIPC   D2A 6090  25.500  27.809   5.021 -0.1607  0.0547  0.2069
    1DIPC   D3A 6091  25.547  28.293   4.814 -0.0155 -0.2609  0.1949
    1DIPC   C4A 6092  25.859  28.587   4.926  0.1565 -0.0574 -0.0508
    1DIPC   C1B 6093  25.826  27.293   5.512  0.1106  0.0582 -0.0308
    1DIPC   D2B 6094  25.886  27.351   5.092 -0.0724 -0.1088  0.0746
    1DIPC   D3B 6095  26.211  27.408   4.827 -0.0492 -0.1936  0.0188
    1DIPC   C4B 6096  26.557  27.758   4.902  0.0613  0.0670  0.0758
    1DIPC   NC3 6097  27.117  19.444   6.405 -0.2386  0.4283 -0.1173
    1DIPC   PO4 6098  26.636  19.593   6.299 -0.0824  0.0853 -0.1327
    1DIPC   GL1 6099  26.840  19.606   5.911  0.0227 -0.0457  0.1953
    1DIPC   GL2 6100  26.755  19.368   5.752  0.0134  0.2853 -0.0455
    1DIPC   C1A 6101  26.918  19.849   5.550 -0.1081 -0.0232  0.2301
    1DIPC   D2A 6102  26.594  19.946   5.254  0.3114 -0.0907 -0.2814
    1DIPC   D3A 6103  26.717  19.919   4.811 -0.1618 -0.1707  0.0155
    1DIPC   C4A 6104  26.354  19.930   4.619  0.2204 -0.0852  0.0177
    1DIPC   C1B 6105  26.674  19.380   5.311  0.1270  0.1653  0.0654
    1DIPC   D2B 6106  26.793  19.451   4.886  0.2267 -0.1111  0.2679
    1DIPC   D3B 6107  26.525  19.395   4.563 -0.1058  0.1399  0.0145
    1DIPC   C4B 6108  26.266  19.013   4.501 -0.3120 -0.1709  0.0996
    1DIPC   NC3 6109   8.487   4.671   7.483 -0.0516  0.1715 -0.1572
    1DIPC   PO4 6110   8.398   4.466   7.041 -0.0525 -0.1647 -0.0727
    1DIPC   GL1 6111   8.574   4.593   6.648 -0.2544 -0.0594  0.1392
    1DIPC   GL2 6112   8.600   4.923   6.671  0.0374  0.0738 -0.1410
    1DIPC   C1A 6113   8.493   4.629   6.129 -0.0629 -0.1894  0.0347
    1DIPC   D2A 6114   8.432   4.522   5.719  0.1900  0.2191  0.0177
    1DIPC   D3A 6115   8.495   4.147   5.567 -0.0678  0.3177  0.3485
    1DIPC   C4A 6116   8.830   4.240   5.361  0.0296  0.0260 -0.0703
    1DIPC   C1B 6117   8.555   5.097   6.230 -0.1548  0.4553 -0.1016
    1DIPC   D2B 6118   8.156   5.328   6.182 -0.0003  0.0799  0.0525
    1DIPC   D3B 6119   8.019   5.441   5.725  0.1232  0.0342 -0.0370
    1DIPC   C4B 6120   8.204   5.204   5.340 -0.0612  0.0222 -0.3018
    1DIPC   NC3 6121  23.341   0.926   6.450 -0.0406 -0.2030  0.0673
    1DIPC   PO4 6122  23.062   1.054   6.226  0.0908 -0.0229 -0.0054
    1DIPC   GL1 6123  23.122   1.006   5.756  0.0507  0.0845  0.0803
    1DIPC   GL2 6124  23.098   1.407   5.666 -0.0367  0.4205  0.1734
    1DIPC   C1A 6125  23.270   1.087   5.312  0.1626 -0.1040  0.1846
    1DIPC   D2A 6126  23.436   1.266   4.836 -0.0624  0.1595  0.3013
    1DIPC   D3A 6127  23.678   1.586   4.490  0.1581  0.1390 -0.0654
    1DIPC   C4A 6128  24.025   1.894   4.558  0.0800  0.3289 -0.0389
    1DIPC   C1B 6129  22.808   1.532   5.357  0.2512 -0.0252 -0.2697
    1DIPC   D2B 6130  22.787   1.536   4.872 -0.1703 -0.0527  0.1237
    1DIPC   D3B 6131  22.623   1.835   4.647 -0.4833  0.1553 -0.1131
    1DIPC   C4B 6132  22.968   2.001   4.348 -0.0213 -0.0777 -0.1219
    1DIPC   NC3 6133   7.804  20.726   6.234 -0.1237 -0.2016 -0.1291
    1DIPC   PO4 6134   7.758  21.165   6.405  0.0200 -0.1065  0.5288
    1DIPC   GL1 6135   7.671  21.063   5.895  0.5617  0.1075 -0.1833
    1DIPC   GL2 6136   7.626  20.782   5.772  0.3011  0.1901  0.0846
    1DIPC   C1A 6137   7.508  21.312   5.562 -0.3232 -0.2762 -0.3186
    1DIPC   D2A 6138   7.158  21.102   5.237  0.0545 -0.1324  0.0771
    1DIPC   D3A 6139   7.180  20.768   4.814 -0.0389 -0.2122 -0.1215
    1DIPC   C4A 6140   6.851  20.541   4.556 -0.1164  0.2929  0.1550
    1DIPC   C1B 6141   7.581  20.843   5.292  0.0508  0.0251 -0.2095
    1DIPC   D2B 6142   7.684  20.777   4.930  0.2658 -0.1221 -0.4046
    1DIPC   D3B 6143   8.106  20.829   4.793 -0.1758 -0.0536 -0.1003
    1DIPC   C4B 6144   8.524  20.946   5.113 -0.0915  0.1810  0.1583
    1DIPC   NC3 6145  17.856  23.557   6.829  0.0059 -0.1599  0.0735
    1DIPC   PO4 6146  17.803  23.128   6.643 -0.0537  0.3135  0.4326
    1DIPC   GL1 6147  17.573  23.038   6.236  0.0403  0.1841  0.1174
    1DIPC   GL2 6148  17.325  23.113   6.154 -0.1103  0.1315  0.3468
    1DIPC   C1A 6149  17.813  23.102   5.825 -0.0446  0.1193  0.1962
    1DIPC   D2A 6150  18.079  23.255   5.451 -0.0499  0.3666 -0.1705
    1DIPC   D3A 6151  17.841  22.936   5.314 -0.1553  0.0163  0.2558
    1DIPC   C4A 6152  17.859  22.728   5.005 -0.0990  0.0608  0.0004
    1DIPC   C1B 6153  17.389  23.366   5.716 -0.0271  0.1501 -0.3165
    1DIPC   D2B 6154  17.640  23.381   5.335  0.2733 -0.1768  0.2626
    1DIPC   D3B 6155  17.415  23.085   5.111 -0.0079  0.0388 -0.0715
    1DIPC   C4B 6156  17.070  22.964   5.409  0.0184  0.3290  0.0186
    1DIPC   NC3 6157  28.152  27.670   7.343 -0.1908  0.1083  0.3607
    1DIPC   PO4 6158  28.023  27.528   6.878  0.0893  0.1261 -0.2538
    1DIPC   GL1 6159  28.101  27.309   6.422 -0.1681  0.1422  0.4275
    1DIPC   GL2 6160  28.354  27.299   6.226 -0.3286  0.1501  0.0117
    1DIPC   C1A 6161  27.857  27.276   6.041 -0.2792  0.5312  0.2698
    1DIPC   D2A 6162  27.942  27.334   5.595  0.2224 -0.2848 -0.0825
    1DIPC   D3A 6163  27.433  27.362   5.709  0.3533 -0.2403  0.2111
    1DIPC   C4A 6164  27.262  26.965   5.696  0.1272 -0.1252  0.0504
    1DIPC   C1B 6165  28.475  27.259   5.880 -0.0143  0.0247 -0.0931
    1DIPC   D2B 6166  28.464  27.292   5.547  0.0656  0.0301  0.0742
    1DIPC   D3B 6167  28.283  27.712   5.748 -0.2863 -0.2560  0.2608
    1DIPC   C4B 6168  28.399  28.007   5.518 -0.0560  0.2160  0.0152
    1DIPC   NC3 6169  24.219  11.087   6.187 -0.0154  0.0700 -0.0527
    1DIPC   PO4 6170  23.785  11.411   6.173 -0.2579  0.1717  0.0283
    1DIPC   GL1 6171  23.649  11.472   5.716 -0.0991  0.2477  0.1040
    1DIPC   GL2 6172  24.003  11.262   5.711  0.0080  0.2704 -0.0281
    1DIPC   C1A 6173  23.308  11.354   5.427 -0.2031 -0.2494  0.1187
    1DIPC   D2A 6174  23.167  10.857   5.402  0.1390  0.0367 -0.4009
    1DIPC   D3A 6175  22.778  10.964   5.139 -0.0073  0.1556  0.1897
    1DIPC   C4A 6176  22.739  10.787   4.710 -0.2285 -0.0578  0.0211
    1DIPC   C1B 6177  23.669  11.045   5.489  0.0402  0.1376 -0.1793
    1DIPC   D2B 6178  23.545  10.941   5.127 -0.2518 -0.3375 -0.1820
    1DIPC   D3B 6179  23.124  11.074   4.779  0.1363 -0.0505 -0.1781
    1DIPC   C4B 6180  23.012  11.471   4.946 -0.1488  0.0900  0.1282
    1DIPC   NC3 6181  14.457  29.238   7.866  0.2219  0.3707  0.1248
    1DIPC   PO4 6182  14.592  29.663   7.786  0.3813  0.3124  0.0246
    1DIPC   GL1 6183  14.405  29.639   7.392  0.1465 -0.1444 -0.0445
    1DIPC   GL2 6184  14.196  29.932   7.201 -0.1555 -0.0590  0.4029
    1DIPC   C1A 6185  14.350  29.540   6.960  0.1652  0.2568 -0.2242
    1DIPC   D2A 6186  14.395  29.675   6.593 -0.2894 -0.0771 -0.0584
    1DIPC   D3A 6187  14.659  29.898   6.550 -0.1744  0.2890  0.1010
    1DIPC   C4A 6188  15.097  29.881   6.552  0.1456  0.0056 -0.2036
    1DIPC   C1B 6189  14.177  30.069   6.808  0.0641 -0.1942  0.2710
    1DIPC   D2B 6190  14.069  29.963   6.426  0.1450 -0.2306  0.1114
    1DIPC   D3B 6191  13.989  29.632   6.229 -0.7339  0.0867 -0.0994
    1DIPC   C4B 6192  13.681  29.596   5.865  0.0134  0.2780  0.2078
    1DIPC   NC3 6193  11.108  24.351   6.401  0.1172  0.0526  0.3175
    1DIPC   PO4 6194  10.794  24.123   6.198  0.3011 -0.2124 -0.1749
    1DIPC   GL1 6195  10.858  24.101   5.699  0.1632 -0.4100  0.0673
    1DIPC   GL2 6196  10.630  24.046   5.445  0.0990  0.1147 -0.2691
    1DIPC   C1A 6197  11.010  24.437   5.465  0.3992 -0.0219  0.3175
    1DIPC   D2A 6198  11.473  24.724   5.295  0.0724  0.1754 -0.2477
    1DIPC   D3A 6199  11.381  24.973   4.872  0.0085 -0.0751 -0.0510
    1DIPC   C4A 6200  11.196  24.806   4.515 -0.1399  0.2130 -0.0990
    1DIPC   C1B 6201  11.021  24.015   5.237  0.0317  0.1241 -0.0702
    1DIPC   D2B 6202  11.351  24.062   4.958  0.0245  0.0338  0.1806
    1DIPC   D3B 6203  11.549  24.242   5.217 -0.0899  0.0332 -0.0932
    1DIPC   C4B 6204  11.531  24.028   5.696 -0.3159  0.1111  0.2459
    1DIPC   NC3 6205  29.136   0.886   6.527  0.2842  0.0990  0.2844
    1DIPC   PO4 6206  28.685   0.812   6.617  0.2198 -0.0007 -0.1741
    1DIPC   GL1 6207  28.396   0.849   6.252  0.1138  0.2352 -0.2167
    1DIPC   GL2 6208  28.379   0.552   6.046 -0.0068 -0.2723  0.0252
    1DIPC   C1A 6209  28.397   1.063   5.836 -0.1258  0.0729 -0.1056
    1DIPC   D2A 6210  28.428   0.889   5.391 -0.0952 -0.1181  0.1954
    1DIPC   D3A 6211  28.054   0.888   5.361  0.2858 -0.2105 -0.3383
    1DIPC   C4A 6212  27.986   0.623   5.760 -0.1799  0.0722 -0.1339
    1DIPC   C1B 6213  28.733   0.676   5.724 -0.2198 -0.3795 -0.1281
    1DIPC   D2B 6214  28.887   0.710   5.278  0.2869  0.1621 -0.0355
    1DIPC   D3B 6215  29.224   0.807   5.558  0.2521  0.0567 -0.0592
    1DIPC   C4B 6216  29.286   0.504   5.845  0.0107  0.0961 -0.1644
    1DIPC   NC3 6217  15.182   0.781   7.812 -0.2311 -0.2279 -0.0421
    1DIPC   PO4 6218  15.555   0.608   7.629 -0.3311  0.1157 -0.0227
    1DIPC   GL1 6219  15.579   0.414   7.237 -0.0733 -0.1172 -0.3030
    1DIPC   GL2 6220  15.365   0.618   7.087 -0.2800  0.1840 -0.1394
    1DIPC   C1A 6221  15.279   0.001   7.074  0.1243 -0.0293 -0.2125
    1DIPC   D2A 6222  15.362  -0.411   6.981  0.1119 -0.2966 -0.0129
    1DIPC   D3A 6223  15.375  -0.316   6.579  0.0720  0.1136  0.2532
    1DIPC   C4A 6224  15.366  -0.561   6.254  0.0844  0.1617  0.0841
    1DIPC   C1B 6225  15.509   0.703   6.688 -0.0498  0.1633  0.0913
    1DIPC   D2B 6226  15.452   0.598   6.165 -0.0437  0.2664 -0.1540
    1DIPC   D3B 6227  15.784   0.303   6.088 -0.1374 -0.2697 -0.0466
    1DIPC   C4B 6228  15.896  -0.029   6.380 -0.0635 -0.1700 -0.1311
    1DIPC   NC3 6229   3.356   1.739   6.267  0.1120  0.2829 -0.0126
    1DIPC   PO4 6230   2.973   1.475   6.112  0.0454 -0.2735 -0.1024
    1DIPC   GL1 6231   2.873   1.605   5.751  0.6969 -0.0587  0.2405
    1DIPC   GL2 6232   2.800   1.860   5.828  0.1748 -0.1433  0.1770
    1DIPC   C1A 6233   3.215   1.529   5.365 -0.0632  0.0586 -0.3791
    1DIPC   D2A 6234   3.045   1.652   4.974  0.0384 -0.1529 -0.0922
    1DIPC   D3A 6235   3.171   2.078   5.043  0.0328 -0.1586 -0.1432
    1DIPC   C4A 6236   2.961   2.388   4.796 -0.1093  0.0707 -0.1098
    1DIPC   C1B 6237   2.861   1.907   5.390  0.3166  0.0406 -0.1853
    1DIPC   D2B 6238   2.711   2.046   4.972 -0.2220 -0.1905 -0.0798
    1DIPC   D3B 6239   2.876   1.923   4.533 -0.0544 -0.0992 -0.1764
    1DIPC   C4B 6240   2.877   1.418   4.575  0.1266  0.1834  0.1606
    1DIPC   NC3 6241  24.139  15.410   6.508 -0.0799  0.4182  0.2347
    1DIPC   PO4 6242  23.893  15.339   6.221 -0.2060 -0.3088 -0.1166
    1DIPC   GL1 6243  23.810  15.218   5.875 -0.2556 -0.0040  0.1265
    1DIPC   GL2 6244  23.980  15.266   5.560  0.0584 -0.2309 -0.1022
    1DIPC   C1A 6245  23.496  15.119   5.493  0.0565  0.2233  0.0738
    1DIPC   D2A 6246  23.520  15.265   5.102  0.3194 -0.0199  0.0267
    1DIPC   D3A 6247  23.143  15.392   5.259  0.0613 -0.1467 -0.0118
    1DIPC   C4A 6248  22.763  15.252   5.028  0.1898 -0.0495  0.2199
    1DIPC   C1B 6249  24.026  15.208   5.138 -0.1178 -0.1701  0.1402
    1DIPC   D2B 6250  24.035  15.239   4.743 -0.1374 -0.1941  0.1782
    1DIPC   D3B 6251  23.861  15.680   4.729 -0.0068  0.0339  0.0187
    1DIPC   C4B 6252  23.954  16.059   4.954  0.0303  0.2070 -0.1434
    1DIPC   NC3 6253  22.005  12.986   6.437  0.0558 -0.1883 -0.1104
    1DIPC   PO4 6254  21.737  13.355   6.289  0.0995 -0.0018  0.0907
    1DIPC   GL1 6255  21.699  13.109   5.937  0.0271  0.2890 -0.3046
    1DIPC   GL2 6256  21.540  13.260   5.798  0.0267 -0.1439 -0.3765
    1DIPC   C1A 6257  21.519  12.724   5.770  0.1400  0.2015  0.2480
    1DIPC   D2A 6258  21.668  12.412   5.468  0.2935 -0.0701  0.1481
    1DIPC   D3A 6259  21.368  12.162   5.097  0.1899  0.0288  0.1789
    1DIPC   C4A 6260  21.564  11.903   4.806 -0.4438 -0.2250  0.0634
    1DIPC   C1B 6261  21.488  13.200   5.332  0.0827 -0.1115 -0.1100
    1DIPC   D2B 6262  21.352  13.340   4.913  0.1660 -0.2720 -0.0971
    1DIPC   D3B 6263  21.202  13.713   4.685 -0.0772  0.0330  0.1759
    1DIPC   C4B 6264  21.287  13.582   4.229 -0.0386 -0.1407 -0.3990
    1DIPC   NC3 6265  28.741   2.802   6.969  0.1772  0.0589 -0.1254
    1DIPC   PO4 6266  29.104   2.740   6.932  0.2416 -0.2560 -0.1503
    1DIPC   GL1 6267  29.025   2.522   6.560 -0.0893  0.0752  0.1953
    1DIPC   GL2 6268  29.221   2.521   6.286  0.1714 -0.1430  0.2199
    1DIPC   C1A 6269  28.726   2.452   6.195 -0.1644 -0.4351  0.0549
    1DIPC   D2A 6270  28.570   2.125   5.890 -0.1481  0.2300  0.0384
    1DIPC   D3A 6271  28.437   2.122   5.470 -0.0363 -0.3689  0.2864
    1DIPC   C4A 6272  28.630   2.306   5.130 -0.2321  0.4226 -0.0781
    1DIPC   C1B 6273  29.105   2.289   5.941  0.0064  0.2884  0.1206
    1DIPC   D2B 6274  28.907   2.344   5.531  0.0560  0.3996 -0.4030
    1DIPC   D3B 6275  28.425   2.601   5.667  0.0163  0.2096 -0.1782
    1DIPC   C4B 6276  28.197   2.450   6.037  0.1268  0.1499 -0.1197
    1DIPC   NC3 6277   7.533  19.425   6.681  0.0897  0.1959  0.4706
    1DIPC   PO4 6278   7.581  19.151   6.185 -0.0994  0.1426  0.0269
    1DIPC   GL1 6279   7.568  19.000   5.802 -0.0029 -0.1239 -0.1140
    1DIPC   GL2 6280   7.497  18.644   5.794 -0.0624 -0.1350 -0.1976
    1DIPC   C1A 6281   7.432  19.099   5.351 -0.1529  0.1408  0.0562
    1DIPC   D2A 6282   7.670  19.008   5.033  0.0054  0.0316  0.0214
    1DIPC   D3A 6283   7.689  18.928   4.598 -0.0613  0.0481 -0.0360
    1DIPC   C4A 6284   7.829  19.275   4.351 -0.1550  0.2554 -0.0266
    1DIPC   C1B 6285   7.521  18.601   5.334 -0.0207  0.0648  0.1610
    1DIPC   D2B 6286   7.650  18.506   4.885  0.2311 -0.2554 -0.2604
    1DIPC   D3B 6287   7.372  18.516   4.501  0.0670 -0.3441 -0.1523
    1DIPC   C4B 6288   7.046  18.322   4.289 -0.0834 -0.2597  0.1050
    1DIPC   NC3 6289  18.987  27.227   7.240  0.0801 -0.3189  0.0589
    1DIPC   PO4 6290  19.379  27.206   7.117  0.0841  0.0744  0.0097
    1DIPC   GL1 6291  19.442  27.190   6.630 -0.1636 -0.1219 -0.1698
    1DIPC   GL2 6292  19.308  27.024   6.435  0.1496  0.3320 -0.0138
    1DIPC   C1A 6293  19.802  27.110   6.352  0.0212  0.0654 -0.0836
    1DIPC   D2A 6294  19.897  26.716   6.127 -0.2883  0.1719  0.0181
    1DIPC   D3A 6295  20.058  26.691   5.660 -0.1025 -0.2852  0.1983
    1DIPC   C4A 6296  20.012  26.462   5.371 -0.1456 -0.2472  0.1569
    1DIPC   C1B 6297  19.415  26.911   6.044  0.3357 -0.0754 -0.1258
    1DIPC   D2B 6298  19.535  26.679   5.714  0.1404 -0.3099  0.1320
    1DIPC   D3B 6299  19.349  26.942   5.451 -0.2204 -0.1513  0.0200
    1DIPC   C4B 6300  19.017  27.126   5.739 -0.0079  0.2858 -0.1505
    1DIPC   NC3 6301  18.064   1.207   7.302 -0.1555 -0.1266 -0.0425
    1DIPC   PO4 6302  17.811   1.405   6.978 -0.1614 -0.2497 -0.1006
    1DIPC   GL1 6303  18.053   1.455   6.545 -0.0357 -0.0357  0.0126
    1DIPC   GL2 6304  18.198   1.675   6.407  0.0345  0.1491 -0.0394
    1DIPC   C1A 6305  17.975   1.163   6.223 -0.0420  0.3937 -0.0061
    1DIPC   D2A 6306  17.657   0.843   6.203  0.1123 -0.0310 -0.0972
    1DIPC   D3A 6307  17.509   1.067   5.779  0.1734  0.0652 -0.0738
    1DIPC   C4A 6308  17.724   1.222   5.344  0.2842  0.2202 -0.2992
    1DIPC   C1B 6309  18.017   1.854   6.049  0.0198  0.0239  0.1249
    1DIPC   D2B 6310  17.941   2.144   5.696 -0.2650 -0.1088 -0.0390
    1DIPC   D3B 6311  17.833   2.478   5.979 -0.1699 -0.1340 -0.1939
    1DIPC   C4B 6312  17.438   2.617   5.875  0.1046  0.2356 -0.1110
    1DIPC   NC3 6313   8.923  16.825   6.598  0.1274 -0.0999  0.2133
    1DIPC   PO4 6314   8.782  16.379   6.416  0.0145  0.0362  0.1547
    1DIPC   GL1 6315   8.604  16.334   6.137  0.2883  0.1215  0.1081
    1DIPC   GL2 6316   8.336  16.400   5.847  0.2053 -0.0394 -0.2748
    1DIPC   C1A 6317   8.796  16.483   5.738 -0.1727 -0.0795  0.0903
    1DIPC   D2A 6318   8.573  16.612   5.391  0.0671 -0.3418  0.0710
    1DIPC   D3A 6319   8.632  16.238   5.354 -0.2285  0.0071  0.0185
    1DIPC   C4A 6320   8.410  16.091   4.950 -0.0090 -0.1324  0.4477
    1DIPC   C1B 6321   8.156  16.699   5.574  0.1745 -0.0642  0.1199
    1DIPC   D2B 6322   7.891  17.050   5.484  0.1490 -0.0839 -0.1440
    1DIPC   D3B 6323   8.107  17.004   5.151  0.2815 -0.1387 -0.2806
    1DIPC   C4B 6324   8.016  16.867   4.732  0.1084  0.0997  0.2041
    1DIPC   NC3 6325  22.109   0.578   6.242 -0.1570 -0.1110 -0.1247
    1DIPC   PO4 6326  21.705   0.802   6.073 -0.2959  0.0842 -0.1364
    1DIPC   GL1 6327  21.613   0.905   5.719 -0.1893  0.0672 -0.2220
    1DIPC   GL2 6328  21.606   1.297   5.713 -0.1236  0.0680  0.1076
    1DIPC   C1A 6329  21.345   0.746   5.400  0.0027  0.2469  0.0224
    1DIPC   D2A 6330  21.256   0.618   4.931 -0.3988 -0.0082  0.0706
    1DIPC   D3A 6331  21.228   0.313   4.611  0.1392 -0.3090  0.2629
    1DIPC   C4A 6332  21.159  -0.140   4.806 -0.1052 -0.1699 -0.4706
    1DIPC   C1B 6333  21.574   1.508   5.281  0.2671  0.2675  0.0374
    1DIPC   D2B 6334  21.783   1.643   4.906 -0.0101  0.1170  0.2285
    1DIPC   D3B 6335  21.781   1.228   4.634  0.1019 -0.2068  0.0453
    1DIPC   C4B 6336  21.861   1.375   4.275 -0.2326  0.0201  0.0313
    1DIPC   NC3 6337  28.933   8.838   6.335  0.0595 -0.0878  0.2957
    1DIPC   PO4 6338  28.803   9.206   6.026 -0.0108  0.3998 -0.4718
    1DIPC   GL1 6339  28.936   9.346   5.557 -0.1416  0.1209 -0.0592
    1DIPC   GL2 6340  29.019   9.100   5.412  0.1466  0.2306  0.1700
    1DIPC   C1A 6341  28.775   9.595   5.172 -0.1877  0.0261 -0.1245
    1DIPC   D2A 6342  29.069   9.660   4.757 -0.1638 -0.0042  0.2159
    1DIPC   D3A 6343  28.636   9.541   4.503  0.2159 -0.3403  0.0964
    1DIPC   C4A 6344  28.691   9.408   4.067 -0.3718  0.0055 -0.0500
    1DIPC   C1B 6345  29.351   8.908   5.281 -0.5758 -0.1164 -0.0080
    1DIPC   D2B 6346  29.814   8.913   5.180 -0.0638 -0.3997 -0.0092
    1DIPC   D3B 6347  29.953   9.021   4.743  0.0612  0.0187  0.2188
    1DIPC   C4B 6348  30.032   8.644   4.507 -0.0083 -0.0057  0.0643
    1DIPC   NC3 6349  23.748   1.887   6.394  0.2871 -0.0905  0.1890
    1DIPC   PO4 6350  23.427   1.728   6.295 -0.1633  0.0783  0.2201
    1DIPC   GL1 6351  23.546   1.669   5.913  0.0209  0.1125  0.1999
    1DIPC   GL2 6352  23.792   1.868   5.851 -0.4704  0.0454  0.1941
    1DIPC   C1A 6353  23.340   1.886   5.593 -0.0738  0.0330 -0.4301
    1DIPC   D2A 6354  23.200   1.763   5.203 -0.3196  0.0109  0.1325
    1DIPC   D3A 6355  23.586   1.533   5.262  0.0429  0.1234  0.0611
    1DIPC   C4A 6356  23.921   1.386   4.982 -0.1590  0.0132 -0.1828
    1DIPC   C1B 6357  23.728   2.210   5.539  0.0923  0.1377  0.1516
    1DIPC   D2B 6358  23.714   2.552   5.180  0.0208 -0.1674  0.3021
    1DIPC   D3B 6359  23.610   2.266   4.825  0.2213 -0.0942 -0.1453
    1DIPC   C4B 6360  23.663   1.879   4.912 -0.1571  0.2999  0.2342
    1DIPC   NC3 6361  10.082   7.413   7.585 -0.0696 -0.2675  0.1206
    1DIPC   PO4 6362   9.901   7.393   7.189  0.1655  0.0375 -0.0632
    1DIPC   GL1 6363  10.093   7.393   6.803  0.0088  0.2222  0.0944
    1DIPC   GL2 6364   9.849   7.568   6.660 -0.0857 -0.2533  0.0955
    1DIPC   C1A 6365  10.198   7.218   6.327 -0.1306 -0.0803 -0.1600
    1DIPC   D2A 6366  10.104   7.059   6.002  0.1248  0.0418 -0.5347
    1DIPC   D3A 6367   9.720   7.160   6.266 -0.1302 -0.0088  0.2773
    1DIPC   C4A 6368   9.372   7.446   6.102  0.2112 -0.0289 -0.1395
    1DIPC   C1B 6369   9.799   7.628   6.186 -0.2236  0.0100 -0.2561
    1DIPC   D2B 6370   9.827   7.360   5.754  0.2755  0.1529 -0.2293
    1DIPC   D3B 6371   9.386   7.345   5.610  0.0209 -0.1223 -0.2077
    1DIPC   C4B 6372   9.224   6.834   5.490  0.0473  0.1288 -0.0508
    1DIPC   NC3 6373  22.267  27.017   6.759 -0.1963 -0.1126 -0.0813
    1DIPC   PO4 6374  22.722  26.806   6.628 -0.0888  0.2614  0.1708
    1DIPC   GL1 6375  22.530  26.685   6.343 -0.1233 -0.3814 -0.1245
    1DIPC   GL2 6376  22.536  26.380   6.296  0.2359 -0.2552  0.1031
    1DIPC   C1A 6377  22.438  26.630   5.895 -0.1472  0.3203 -0.0123
    1DIPC   D2A 6378  22.400  26.800   5.534  0.3786 -0.0277 -0.0309
    1DIPC   D3A 6379  22.446  26.676   5.217  0.2053 -0.1008 -0.0240
    1DIPC   C4A 6380  22.646  26.740   4.821 -0.1501 -0.2182 -0.1582
    1DIPC   C1B 6381  22.959  26.377   6.089 -0.1732  0.1478  0.2742
    1DIPC   D2B 6382  23.260  26.477   5.735  0.2633 -0.2964 -0.2050
    1DIPC   D3B 6383  23.420  26.839   5.828  0.1648  0.2816  0.0594
    1DIPC   C4B 6384  23.675  27.195   5.617  0.2866  0.1848  0.0025
    1DIPC   NC3 6385  12.769   8.648   7.445 -0.0475 -0.0996  0.1096
    1DIPC   PO4 6386  13.207   8.687   7.537 -0.2078 -0.2621  0.2360
    1DIPC   GL1 6387  13.266   8.498   7.170  0.0133 -0.0432  0.1617
    1DIPC   GL2 6388  13.024   8.327   7.039 -0.2746 -0.0469  0.2488
    1DIPC   C1A 6389  13.427   8.297   6.810 -0.0822 -0.1419  0.2346
    1DIPC   D2A 6390  13.693   8.238   6.435 -0.1603 -0.3810 -0.0599
    1DIPC   D3A 6391  13.633   7.939   6.112  0.3062  0.1083  0.4602
    1DIPC   C4A 6392  13.767   7.864   5.587 -0.0797 -0.0227  0.0296
    1DIPC   C1B 6393  12.700   8.473   6.768  0.2362 -0.0705 -0.2074
    1DIPC   D2B 6394  12.246   8.736   6.793 -0.1624  0.1217  0.0696
    1DIPC   D3B 6395  12.690   8.909   6.588 -0.0237 -0.3847  0.0454
    1DIPC   C4B 6396  12.882   9.372   6.695  0.0616 -0.1568  0.4488
    1DIPC   NC3 6397  19.876   4.811   7.170 -0.1858 -0.1447  0.0848
    1DIPC   PO4 6398  20.090   5.058   6.875  0.0262 -0.0201 -0.0014
    1DIPC   GL1 6399  20.187   4.887   6.535 -0.0434 -0.1303  0.0421
    1DIPC   GL2 6400  20.484   4.922   6.341  0.1784 -0.1593  0.2041
    1DIPC   C1A 6401  20.085   4.891   6.070  0.0483 -0.1641 -0.2462
    1DIPC   D2A 6402  20.123   5.072   5.632  0.1102 -0.0623 -0.0431
    1DIPC   D3A 6403  20.550   5.248   5.591 -0.4803 -0.0464 -0.2752
    1DIPC   C4A 6404  20.854   5.573   5.538  0.2123 -0.2319  0.2922
    1DIPC   C1B 6405  20.558   5.301   6.087  0.1342  0.1523 -0.2586
    1DIPC   D2B 6406  20.850   5.529   6.211 -0.0455 -0.1823 -0.0855
    1DIPC   D3B 6407  20.949   5.022   6.322 -0.2527 -0.3589 -0.2975
    1DIPC   C4B 6408  20.893   4.890   5.956  0.0207  0.2568  0.2236
    1DIPC   NC3 6409  24.688  26.117   6.817 -0.3180  0.1620 -0.1670
    1DIPC   PO4 6410  24.222  26.195   6.778 -0.0999 -0.1360 -0.2539
    1DIPC   GL1 6411  23.907  25.950   6.680 -0.4043  0.0157  0.2301
    1DIPC   GL2 6412  23.577  26.001   6.702  0.1369  0.0601 -0.0027
    1DIPC   C1A 6413  23.716  25.716   6.276  0.3304  0.1370 -0.0616
    1DIPC   D2A 6414  23.480  25.584   5.883  0.2499  0.1971 -0.4178
    1DIPC   D3A 6415  23.345  25.510   5.512  0.1331  0.0833  0.0200
    1DIPC   C4A 6416  23.398  25.590   5.073 -0.2309  0.1139  0.0331
    1DIPC   C1B 6417  23.302  25.957   6.261  0.3298  0.0029  0.0422
    1DIPC   D2B 6418  23.183  26.018   5.792 -0.0404 -0.1388 -0.0943
    1DIPC   D3B 6419  23.592  26.042   5.751 -0.1055 -0.0864  0.0544
    1DIPC   C4B 6420  24.084  25.822   5.922  0.0062 -0.0234 -0.1411
    1DIPC   NC3 6421  21.493   4.311   6.400 -0.2251  0.2013 -0.1148
    1DIPC   PO4 6422  21.917   4.198   6.435  0.2358 -0.0904  0.3469
    1DIPC   GL1 6423  22.098   4.306   6.078  0.2357  0.2915 -0.0445
    1DIPC   GL2 6424  21.862   4.531   6.054  0.0149 -0.3288  0.1167
    1DIPC   C1A 6425  22.310   4.216   5.881 -0.1382  0.2434 -0.1068
    1DIPC   D2A 6426  22.639   4.374   5.605  0.1053 -0.2011 -0.4130
    1DIPC   D3A 6427  22.450   4.025   5.342 -0.1288 -0.0360  0.0909
    1DIPC   C4A 6428  22.325   4.199   4.907  0.0902 -0.0346 -0.2469
    1DIPC   C1B 6429  22.242   4.725   5.864 -0.0312 -0.0487 -0.0323
    1DIPC   D2B 6430  22.118   4.526   5.448 -0.3842  0.0385  0.1002
    1DIPC   D3B 6431  21.852   4.908   5.433 -0.1624  0.0516  0.0923
    1DIPC   C4B 6432  21.595   4.947   5.099  0.0641 -0.1354 -0.0314
    1DIPC   NC3 6433   6.304  27.109   7.193 -0.1325 -0.1742 -0.3831
    1DIPC   PO4 6434   6.626  26.785   7.090 -0.2509 -0.0816  0.0141
    1DIPC   GL1 6435   6.693  27.125   6.783  0.2241  0.2180  0.2261
    1DIPC   GL2 6436   6.773  26.996   6.629  0.2770  0.4613 -0.0862
    1DIPC   C1A 6437   6.584  27.512   6.626  0.0826  0.1403  0.1798
    1DIPC   D2A 6438   6.311  27.890   6.423 -0.3440  0.0293 -0.0327
    1DIPC   D3A 6439   5.986  27.749   6.118 -0.1733 -0.1007 -0.0451
    1DIPC   C4A 6440   6.166  27.498   5.774 -0.2308  0.0130  0.0624
    1DIPC   C1B 6441   6.652  26.978   6.253  0.4171  0.0565 -0.1568
    1DIPC   D2B 6442   6.681  27.047   5.796  0.0644 -0.0912 -0.1468
    1DIPC   D3B 6443   6.719  26.640   5.657 -0.1354  0.1812  0.0137
    1DIPC   C4B 6444   6.611  26.465   5.226  0.1831 -0.0750  0.0144
    1DIPC   NC3 6445   0.159  15.462   6.543 -0.0577 -0.3224 -0.3831
    1DIPC   PO4 6446   0.421  15.815   6.227  0.2678 -0.0513 -0.0825
    1DIPC   GL1 6447   0.223  15.765   5.847  0.2562  0.0914  0.1053
    1DIPC   GL2 6448  -0.013  16.054   5.772 -0.0735 -0.0634  0.1374
    1DIPC   C1A 6449   0.271  15.638   5.351 -0.1698 -0.2806 -0.1206
    1DIPC   D2A 6450  -0.131  15.529   5.085 -0.2145 -0.0362  0.2053
    1DIPC   D3A 6451  -0.524  15.337   4.733 -0.0751 -0.1341 -0.3266
    1DIPC   C4A 6452  -0.266  15.121   4.364 -0.3750 -0.1199 -0.0421
    1DIPC   C1B 6453  -0.202  15.888   5.414 -0.1243  0.2034 -0.0659
    1DIPC   D2B 6454  -0.636  15.683   5.308 -0.5194 -0.0717 -0.4030
    1DIPC   D3B 6455  -0.930  15.497   5.398 -0.5596  0.0285  0.2032
    1DIPC   C4B 6456  -1.103  15.519   5.062  0.2220 -0.1318 -0.2985
    1DIPC   NC3 6457   6.822   5.496   7.395 -0.3270  0.0199  0.0560
    1DIPC   PO4 6458   6.447   5.812   7.156  0.2053 -0.0466  0.1081
    1DIPC   GL1 6459   6.819   5.680   6.889  0.1617 -0.0601  0.2466
    1DIPC   GL2 6460   6.859   5.910   6.518  0.1092  0.3136 -0.0862
    1DIPC   C1A 6461   6.917   5.432   6.570 -0.0656 -0.1402  0.0312
    1DIPC   D2A 6462   7.350   5.511   6.519 -0.1602  0.3896  0.1606
    1DIPC   D3A 6463   7.650   5.709   6.394 -0.1041 -0.0362 -0.2248
    1DIPC   C4A 6464   8.015   5.816   6.640  0.0375 -0.0095  0.0280
    1DIPC   C1B 6465   7.249   5.954   6.266 -0.1847 -0.0458  0.0970
    1DIPC   D2B 6466   7.587   6.138   6.049 -0.0037  0.1434  0.2377
    1DIPC   D3B 6467   7.716   6.076   5.596 -0.0990  0.0053  0.1240
    1DIPC   C4B 6468   7.683   5.692   5.356 -0.0225 -0.0571 -0.0394
    1DIPC   NC3 6469  24.443   1.307   6.109  0.3106  0.0170 -0.0006
    1DIPC   PO4 6470  24.594   1.590   6.341  0.1893  0.1316 -0.0954
    1DIPC   GL1 6471  24.679   1.658   5.802 -0.1626  0.0448 -0.3483
    1DIPC   GL2 6472  24.490   1.487   5.639  0.0625 -0.0236 -0.2127
    1DIPC   C1A 6473  24.539   1.916   5.423  0.1402 -0.1773  0.0956
    1DIPC   D2A 6474  24.184   2.253   5.284  0.0162  0.1905 -0.1767
    1DIPC   D3A 6475  24.205   2.305   4.795  0.0500 -0.2272  0.1127
    1DIPC   C4A 6476  24.584   2.199   4.537  0.1932  0.4032 -0.1204
    1DIPC   C1B 6477  24.342   1.197   5.344  0.1892 -0.1129  0.1688
    1DIPC   D2B 6478  24.304   0.826   5.045 -0.0809 -0.0426 -0.0264
    1DIPC   D3B 6479  24.022   0.665   4.667  0.2431  0.1094 -0.0345
    1DIPC   C4B 6480  23.709   0.334   4.741  0.0151  0.1173  0.1196
    1DIPC   NC3 6481  16.161  23.676   7.097 -0.0412  0.0603  0.0116
    1DIPC   PO4 6482  16.499  23.918   7.089 -0.0995  0.0881  0.0630
    1DIPC   GL1 6483  16.717  24.111   6.614 -0.2073  0.0971  0.1131
    1DIPC   GL2 6484  16.774  24.382   6.587 -0.0049 -0.0627 -0.0456
    1DIPC   C1A 6485  16.986  24.186   6.205  0.2185  0.0150  0.1004
    1DIPC   D2A 6486  16.864  24.486   5.871  0.0738 -0.1488 -0.1024
    1DIPC   D3A 6487  16.595  24.246   5.658  0.3132  0.2522  0.0472
    1DIPC   C4A 6488  16.697  23.935   5.428 -0.0123 -0.1635  0.2089
    1DIPC   C1B 6489  16.719  24.707   6.363  0.0763 -0.2801 -0.0238
    1DIPC   D2B 6490  16.541  24.800   5.969  0.3878  0.0329 -0.0551
    1DIPC   D3B 6491  16.874  25.085   5.878  0.2456  0.3395  0.1888
    1DIPC   C4B 6492  16.905  25.541   5.845 -0.0489 -0.0671 -0.0706
    1DIPC   NC3 6493  25.181   3.725   5.574  0.1427 -0.2514  0.0471
    1DIPC   PO4 6494  24.947   3.545   5.838 -0.0684 -0.2521  0.0920
    1DIPC   GL1 6495  24.708   3.356   5.496 -0.1098  0.1515  0.0884
    1DIPC   GL2 6496  24.684   3.646   5.291 -0.0531 -0.0537 -0.0795
    1DIPC   C1A 6497  24.543   3.140   5.083 -0.0418 -0.1943  0.1514
    1DIPC   D2A 6498  24.500   2.798   4.944 -0.2058  0.2430  0.1511
    1DIPC   D3A 6499  24.509   3.030   4.482 -0.0599 -0.1350  0.0103
    1DIPC   C4A 6500  24.234   3.381   4.366 -0.0710 -0.1897 -0.1214
    1DIPC   C1B 6501  24.530   3.618   4.875 -0.0328 -0.0507  0.2775
    1DIPC   D2B 6502  24.531   3.939   4.557  0.2392  0.3744  0.0036
    1DIPC   D3B 6503  24.274   4.308   4.444  0.0332 -0.0763  0.2639
    1DIPC   C4B 6504  23.872   4.250   4.496  0.1793 -0.1163 -0.1544
    1DIPC   NC3 6505  11.336  28.665   7.760  0.1522 -0.0988  0.1295
    1DIPC   PO4 6506  10.940  28.370   7.623 -0.1039 -0.0562 -0.0403
    1DIPC   GL1 6507  11.034  28.448   7.261 -0.2884  0.0637  0.1336
    1DIPC   GL2 6508  11.112  28.250   7.001 -0.0539 -0.1206 -0.1654
    1DIPC   C1A 6509  10.855  28.792   6.949 -0.0692  0.1770  0.1119
    1DIPC   D2A 6510  10.872  28.947   6.497 -0.1152  0.1884  0.4618
    1DIPC   D3A 6511  10.727  28.581   6.136  0.1138 -0.1725 -0.1191
    1DIPC   C4A 6512  10.881  28.567   5.719 -0.1125  0.1208  0.0541
    1DIPC   C1B 6513  11.088  28.278   6.484 -0.1416 -0.0118  0.0806
    1DIPC   D2B 6514  11.421  28.138   6.144 -0.3317  0.2282 -0.2703
    1DIPC   D3B 6515  11.373  27.770   5.902 -0.1695 -0.1194  0.2798
    1DIPC   C4B 6516  11.036  27.703   5.734  0.1733  0.3951  0.0306
    1DIPC   NC3 6517   1.152  22.788   6.595 -0.0593  0.2970  0.0992
    1DIPC   PO4 6518   0.857  22.740   6.340 -0.1281  0.2379 -0.3788
    1DIPC   GL1 6519   0.700  22.534   5.949  0.0416 -0.2173  0.2986
    1DIPC   GL2 6520   0.532  22.260   5.957  0.1640 -0.2794 -0.0963
    1DIPC   C1A 6521   0.522  22.500   5.538 -0.1022  0.1976  0.0639
    1DIPC   D2A 6522   0.181  22.766   5.305 -0.0479  0.0789 -0.0970
    1DIPC   D3A 6523  -0.031  23.055   5.083 -0.3063 -0.1857  0.0577
    1DIPC   C4A 6524  -0.068  23.432   5.385 -0.0345  0.1250  0.1359
    1DIPC   C1B 6525   0.767  22.067   5.669  0.2216  0.1114 -0.1784
    1DIPC   D2B 6526   1.042  21.839   5.393 -0.1524 -0.1245 -0.4626
    1DIPC   D3B 6527   1.379  22.149   5.196  0.2214 -0.0184 -0.0040
    1DIPC   C4B 6528   1.372  22.638   5.134  0.1036 -0.2154 -0.1831
    1DIPC   NC3 6529  23.898  13.959   6.173  0.0625  0.0049 -0.0135
    1DIPC   PO4 6530  23.990  13.604   5.865  0.2693  0.0627 -0.2092
    1DIPC   GL1 6531  23.763  13.686   5.441 -0.3681  0.2295  0.1274
    1DIPC   GL2 6532  23.477  13.509   5.435  0.2231  0.1053 -0.1721
    1DIPC   C1A 6533  23.439  13.927   5.269  0.2505  0.0031  0.1756
    1DIPC   D2A 6534  23.098  13.932   5.004  0.1866 -0.0828  0.0819
    1DIPC   D3A 6535  23.188  13.503   4.979  0.1344 -0.0500  0.0226
    1DIPC   C4A 6536  23.316  13.388   4.645  0.3819  0.1100  0.0629
    1DIPC   C1B 6537  23.659  13.186   5.076  0.0664 -0.0327  0.2950
    1DIPC   D2B 6538  23.779  12.761   4.844 -0.0032 -0.1033 -0.1168
    1DIPC   D3B 6539  23.809  12.654   5.245 -0.1282 -0.1942 -0.0979
    1DIPC   C4B 6540  24.081  12.394   5.061 -0.4257 -0.0795 -0.3087
    1DIPC   NC3 6541  27.101  18.707   5.982  0.3264  0.0874  0.1058
    1DIPC   PO4 6542  27.310  19.136   5.977 -0.0745 -0.1154 -0.0284
    1DIPC   GL1 6543  27.284  19.162   5.536 -0.0986 -0.0661  0.0282
    1DIPC   GL2 6544  26.947  18.948   5.476  0.3001 -0.1118  0.1005
    1DIPC   C1A 6545  27.127  19.480   5.208  0.2515  0.1509  0.1016
    1DIPC   D2A 6546  27.263  19.795   4.869 -0.0217  0.3019 -0.1584
    1DIPC   D3A 6547  26.962  19.741   4.420  0.0157 -0.0146  0.1278
    1DIPC   C4A 6548  26.879  20.026   4.233  0.1010  0.1403 -0.2062
    1DIPC   C1B 6549  26.968  19.019   5.099 -0.0490  0.0584 -0.2111
    1DIPC   D2B 6550  26.745  18.942   4.750 -0.0540 -0.0660 -0.3493
    1DIPC   D3B 6551  26.435  18.586   4.769  0.2110 -0.1620  0.3136
    1DIPC   C4B 6552  26.464  18.324   5.147  0.0829  0.1065 -0.0379
    1DIPC   NC3 6553  27.459   1.056   6.526 -0.0258 -0.0451 -0.1041
    1DIPC   PO4 6554  27.115   0.679   6.367 -0.0770 -0.1654 -0.1086
    1DIPC   GL1 6555  27.405   0.706   6.036 -0.1709 -0.4136 -0.2113
    1DIPC   GL2 6556  27.601   1.094   6.033 -0.0708  0.6934  0.0514
    1DIPC   C1A 6557  27.400   0.601   5.610  0.6478  0.0273  0.0544
    1DIPC   D2A 6558  27.614   0.595   5.234 -0.5506 -0.2909 -0.0367
    1DIPC   D3A 6559  27.849   0.297   5.442 -0.0408  0.1200  0.2465
    1DIPC   C4A 6560  27.602  -0.016   5.444  0.2439 -0.1857 -0.1574
    1DIPC   C1B 6561  27.573   1.029   5.650 -0.1232 -0.0240 -0.3168
    1DIPC   D2B 6562  27.220   1.151   5.353  0.1863 -0.1367 -0.1085
    1DIPC   D3B 6563  27.236   1.411   5.713  0.1881  0.1398 -0.0082
    1DIPC   C4B 6564  27.631   1.649   5.934  0.3516 -0.3280 -0.0929
    1DIPC   NC3 6565  17.444   6.305   7.111 -0.0537  0.0181 -0.0355
    1DIPC   PO4 6566  17.830   5.947   7.158 -0.0278  0.1288  0.3345
    1DIPC   GL1 6567  17.635   5.818   6.788  0.0585 -0.0514  0.3223
    1DIPC   GL2 6568  17.338   5.957   6.786 -0.2622  0.1192 -0.1554
    1DIPC   C1A 6569  17.802   5.840   6.392 -0.3066 -0.3689  0.2416
    1DIPC   D2A 6570  17.813   5.912   5.987  0.0609 -0.1010 -0.0945
    1DIPC   D3A 6571  17.666   6.297   5.814  0.3190  0.1757 -0.2783
    1DIPC   C4A 6572  17.724   6.437   5.495 -0.0259  0.0418  0.0388
    1DIPC   C1B 6573  16.971   5.799   6.726 -0.1694 -0.2801  0.0372
    1DIPC   D2B 6574  16.652   5.498   6.994 -0.1068 -0.1408  0.0182
    1DIPC   D3B 6575  16.578   5.966   6.961  0.0848 -0.0606 -0.1381
    1DIPC   C4B 6576  16.741   6.351   6.887 -0.3623 -0.1669  0.2579
    1DIPC   NC3 6577   2.230  26.476   6.615  0.0099  0.2127  0.3074
    1DIPC   PO4 6578   2.447  26.874   6.820 -0.1517  0.1656  0.1333
    1DIPC   GL1 6579   2.559  26.867   6.345  0.3189  0.3170 -0.0837
    1DIPC   GL2 6580   2.816  26.726   6.275 -0.2292  0.1530  0.2594
    1DIPC   C1A 6581   2.521  26.840   5.882 -0.4425 -0.2650 -0.4446
    1DIPC   D2A 6582   2.609  26.661   5.428 -0.2566 -0.0999 -0.0709
    1DIPC   D3A 6583   2.399  26.419   5.660 -0.3021 -0.3962 -0.0289
    1DIPC   C4A 6584   2.349  26.002   5.582 -0.2213  0.0086  0.1661
    1DIPC   C1B 6585   3.243  26.653   5.972  0.0570  0.1708 -0.5054
    1DIPC   D2B 6586   3.534  26.750   5.635 -0.0060 -0.1280  0.0312
    1DIPC   D3B 6587   3.375  26.996   5.282  0.0807  0.0090  0.3827
    1DIPC   C4B 6588   3.419  26.836   4.811  0.1839 -0.0054 -0.0260
    1DIPC   NC3 6589  15.687  24.098   7.657  0.0557  0.1774  0.0473
    1DIPC   PO4 6590  15.836  24.069   7.219  0.2635  0.2473  0.2663
    1DIPC   GL1 6591  15.879  24.105   6.747 -0.0816 -0.2009 -0.3430
    1DIPC   GL2 6592  15.752  24.161   6.484 -0.1730  0.1819 -0.1235
    1DIPC   C1A 6593  16.251  24.194   6.527  0.1719  0.3088 -0.1193
    1DIPC   D2A 6594  16.514  24.299   6.174 -0.2015  0.0020  0.0008
    1DIPC   D3A 6595  16.492  23.879   6.008  0.0454  0.1147  0.1680
    1DIPC   C4A 6596  16.913  23.777   5.854  0.2790 -0.1403  0.2977
    1DIPC   C1B 6597  15.992  24.203   6.061  0.1941 -0.0751 -0.0053
    1DIPC   D2B 6598  16.035  24.129   5.630 -0.0434 -0.1290 -0.1110
    1DIPC   D3B 6599  16.219  24.471   5.260 -0.2368 -0.1223 -0.1425
    1DIPC   C4B 6600  15.997  24.807   5.191 -0.1116 -0.4096  0.1274
    1DIPC   NC3 6601   3.915  14.939   6.330  0.0774 -0.2833 -0.0168
    1DIPC   PO4 6602   4.184  14.584   6.193 -0.1113  0.0480  0.1402
    1DIPC   GL1 6603   4.321  14.361   5.836  0.0080  0.0151  0.0947
    1DIPC   GL2 6604   4.159  14.183   5.701 -0.1452 -0.1248  0.1384
    1DIPC   C1A 6605   4.484  14.366   5.415  0.1769  0.1377  0.2513
    1DIPC   D2A 6606   4.550  14.021   5.019  0.2580 -0.3011 -0.1545
    1DIPC   D3A 6607   4.600  13.563   5.104 -0.1820 -0.0207 -0.2366
    1DIPC   C4A 6608   4.548  13.219   4.870  0.0899  0.3890 -0.0943
    1DIPC   C1B 6609   4.214  13.885   5.392  0.0630 -0.2199  0.5387
    1DIPC   D2B 6610   4.123  13.724   4.995 -0.0646 -0.0155 -0.3287
    1DIPC   D3B 6611   4.186  13.376   5.315 -0.3066 -0.2728  0.1077
    1DIPC   C4B 6612   3.783  13.414   5.488  0.0227  0.0599 -0.2120
    1DIPC   NC3 6613   5.235   3.033   6.854 -0.2103  0.1524 -0.4177
    1DIPC   PO4 6614   5.258   2.846   6.434 -0.2683  0.0335  0.1773
    1DIPC   GL1 6615   5.070   2.830   5.996  0.1140 -0.0493 -0.1423
    1DIPC   GL2 6616   5.128   3.109   5.743  0.2000 -0.1405 -0.0796
    1DIPC   C1A 6617   5.134   2.445   5.706 -0.0843  0.1352 -0.0341
    1DIPC   D2A 6618   5.249   2.032   5.696 -0.3104 -0.1512  0.0602
    1DIPC   D3A 6619   4.963   1.622   5.689 -0.3293  0.2276  0.1455
    1DIPC   C4A 6620   4.845   1.370   6.078  0.3789 -0.0222 -0.1037
    1DIPC   C1B 6621   5.267   2.903   5.346 -0.1190 -0.0680  0.0167
    1DIPC   D2B 6622   5.187   2.557   5.211 -0.2533 -0.2601  0.1106
    1DIPC   D3B 6623   5.124   2.486   4.770 -0.3309  0.1758 -0.1032
    1DIPC   C4B 6624   4.756   2.227   4.725 -0.1388  0.1815  0.4367
    1DIPC   NC3 6625  25.742  25.557   6.625 -0.0716  0.1332 -0.0958
    1DIPC   PO4 6626  25.406  25.522   6.514  0.3920 -0.1165  0.1992
    1DIPC   GL1 6627  25.549  25.529   6.121  0.1805 -0.3153 -0.4011
    1DIPC   GL2 6628  25.942  25.615   6.125  0.0651  0.1546  0.0869
    1DIPC   C1A 6629  25.568  25.329   5.681 -0.0653  0.0267 -0.1286
    1DIPC   D2A 6630  25.787  25.186   5.261  0.3981 -0.3856  0.0939
    1DIPC   D3A 6631  25.937  24.868   5.117  0.0846  0.2382 -0.0916
    1DIPC   C4A 6632  26.184  24.522   5.049  0.0770  0.2837  0.0178
    1DIPC   C1B 6633  25.740  25.844   5.852  0.0730  0.1572  0.0407
    1DIPC   D2B 6634  25.875  25.695   5.490  0.3376  0.0934  0.3014
    1DIPC   D3B 6635  26.294  25.823   5.662 -0.0217  0.0357 -0.1932
    1DIPC   C4B 6636  26.399  25.883   5.993  0.1191 -0.4905 -0.0584
    1DIPC   NC3 6637  16.695   1.856   6.758  0.1595 -0.0035  0.1500
    1DIPC   PO4 6638  16.270   1.812   7.021  0.1675 -0.0212 -0.2117
    1DIPC   GL1 6639  16.256   1.740   6.578 -0.1564  0.0095 -0.1971
    1DIPC   GL2 6640  16.206   1.989   6.257  0.1764  0.0946 -0.2343
    1DIPC   C1A 6641  16.370   1.545   6.012 -0.1202 -0.1427  0.0330
    1DIPC   D2A 6642  16.701   1.375   5.712  0.1912  0.1730  0.1100
    1DIPC   D3A 6643  16.671   1.007   5.418  0.0703  0.1618  0.0469
    1DIPC   C4A 6644  16.403   0.650   5.669 -0.0087 -0.0140 -0.0379
    1DIPC   C1B 6645  16.049   1.925   5.873 -0.4793 -0.3149  0.0767
    1DIPC   D2B 6646  16.017   1.639   5.643 -0.1850 -0.0470 -0.1039
    1DIPC   D3B 6647  16.237   1.177   5.684  0.2280 -0.0706  0.0627
    1DIPC   C4B 6648  16.474   0.984   6.091 -0.2839 -0.2783  0.1619
    1DIPC   NC3 6649  13.313   2.718   7.024 -0.2870  0.1074 -0.0504
    1DIPC   PO4 6650  13.664   2.715   7.274  0.4508  0.0017 -0.3673
    1DIPC   GL1 6651  13.741   2.904   6.804 -0.2311  0.0889 -0.3105
    1DIPC   GL2 6652  13.540   3.222   6.777  0.0730 -0.1194 -0.0498
    1DIPC   C1A 6653  13.747   3.023   6.405 -0.0902 -0.0447 -0.2737
    1DIPC   D2A 6654  13.430   3.118   6.032  0.2734 -0.1213 -0.0202
    1DIPC   D3A 6655  13.122   2.826   6.035  0.1650  0.3640 -0.0188
    1DIPC   C4A 6656  13.049   2.582   5.722 -0.0214  0.2411 -0.0186
    1DIPC   C1B 6657  13.108   3.082   6.506 -0.1518  0.2678  0.0168
    1DIPC   D2B 6658  12.855   3.215   6.204  0.0063 -0.0836  0.0163
    1DIPC   D3B 6659  12.568   3.472   5.926 -0.2419  0.1014 -0.1038
    1DIPC   C4B 6660  12.779   3.637   5.602 -0.0330  0.1777 -0.1771
    1DIPC   NC3 6661  13.409   6.616   8.309  0.0878  0.2798 -0.1512
    1DIPC   PO4 6662  13.439   6.727   7.816  0.1558  0.0170  0.1633
    1DIPC   GL1 6663  13.723   6.706   7.453  0.2055  0.0574 -0.1263
    1DIPC   GL2 6664  14.047   6.508   7.495 -0.0466  0.0915  0.1925
    1DIPC   C1A 6665  13.720   6.871   7.024  0.2011  0.1680  0.1161
    1DIPC   D2A 6666  13.609   7.011   6.605 -0.1461 -0.3286 -0.2090
    1DIPC   D3A 6667  13.390   6.764   6.307 -0.1805  0.0033  0.2172
    1DIPC   C4A 6668  13.292   6.359   6.344  0.0207  0.0026  0.2303
    1DIPC   C1B 6669  13.867   6.276   7.150  0.0731  0.2316 -0.0357
    1DIPC   D2B 6670  13.454   6.255   6.844 -0.0501 -0.1212 -0.4491
    1DIPC   D3B 6671  13.646   5.929   6.680  0.0996  0.2462 -0.0447
    1DIPC   C4B 6672  13.427   5.498   6.718 -0.0160 -0.0974  0.0421
    1DIPC   NC3 6673  27.851   6.460   6.084  0.1858 -0.0125  0.1388
    1DIPC   PO4 6674  27.476   6.468   5.853  0.1698  0.0707 -0.1922
    1DIPC   GL1 6675  27.681   6.327   5.592  0.0595  0.1686 -0.1020
    1DIPC   GL2 6676  27.999   6.403   5.601 -0.0751 -0.1025  0.0622
    1DIPC   C1A 6677  27.740   6.312   5.138 -0.3314  0.2175 -0.2044
    1DIPC   D2A 6678  27.837   6.438   4.756 -0.2935  0.0913  0.1886
    1DIPC   D3A 6679  27.690   6.136   4.525 -0.1998 -0.0460  0.0663
    1DIPC   C4A 6680  27.610   6.359   4.100 -0.0196 -0.1603 -0.1013
    1DIPC   C1B 6681  28.284   6.543   5.272 -0.0001  0.3144 -0.2583
    1DIPC   D2B 6682  28.638   6.455   4.912  0.1356 -0.2209 -0.0957
    1DIPC   D3B 6683  28.282   6.756   4.770  0.0805  0.2266  0.1092
    1DIPC   C4B 6684  28.408   7.148   4.574  0.0221  0.5533  0.1115
    1DIPC   NC3 6685   2.672  28.655   6.986  0.2811 -0.0027  0.0293
    1DIPC   PO4 6686   2.370  28.651   6.683  0.0334  0.0327 -0.2464
    1DIPC   GL1 6687   2.385  28.561   6.223  0.0804  0.2617 -0.1508
    1DIPC   GL2 6688   2.642  28.524   6.049  0.2942 -0.0408  0.1489
    1DIPC   C1A 6689   2.215  28.766   5.879 -0.1306  0.0627 -0.0018
    1DIPC   D2A 6690   1.797  28.842   5.633 -0.1102 -0.1499 -0.1542
    1DIPC   D3A 6691   1.824  28.425   5.670  0.3215  0.0246  0.1555
    1DIPC   C4A 6692   1.692  28.204   5.230 -0.0857  0.1291  0.0326
    1DIPC   C1B 6693   2.469  28.489   5.596 -0.0985  0.1204  0.3555
    1DIPC   D2B 6694   2.352  28.124   5.317 -0.0816  0.2073 -0.3141
    1DIPC   D3B 6695   2.133  27.982   4.903  0.0602  0.2100  0.1794
    1DIPC   C4B 6696   2.321  27.582   4.779  0.0886 -0.0550  0.1087
    1DIPC   NC3 6697   1.820   5.096   5.367 -0.0798  0.2388  0.1591
    1DIPC   PO4 6698   1.748   5.519   5.276  0.1277 -0.1430  0.1347
    1DIPC   GL1 6699   1.623   5.271   4.933  0.1868  0.0803  0.1744
    1DIPC   GL2 6700   1.934   5.334   4.812 -0.0643  0.0233 -0.1629
    1DIPC   C1A 6701   1.274   5.272   4.793 -0.1221  0.1304  0.0041
    1DIPC   D2A 6702   0.947   5.227   5.079 -0.1987  0.0626 -0.1712
    1DIPC   D3A 6703   0.911   5.608   4.834 -0.1159 -0.2495  0.0040
    1DIPC   C4A 6704   0.532   5.689   4.684 -0.0192 -0.0624  0.2160
    1DIPC   C1B 6705   1.800   5.457   4.440 -0.0820  0.3213 -0.3032
    1DIPC   D2B 6706   1.732   5.854   4.344  0.0355 -0.0583 -0.1076
    1DIPC   D3B 6707   1.416   5.861   4.006  0.1761 -0.0132 -0.1272
    1DIPC   C4B 6708   1.000   5.967   4.063  0.2295 -0.1997  0.2473
    1DIPC   NC3 6709  25.546   4.117   6.226  0.0902 -0.0985 -0.1544
    1DIPC   PO4 6710  25.146   4.103   5.913  0.1082 -0.0765  0.3293
    1DIPC   GL1 6711  25.170   4.205   5.506  0.3315 -0.0387 -0.1016
    1DIPC   GL2 6712  25.419   4.356   5.364 -0.2450  0.3399  0.0204
    1DIPC   C1A 6713  24.845   4.503   5.297 -0.1558  0.0168 -0.1095
    1DIPC   D2A 6714  24.546   4.835   5.297  0.2399  0.0797  0.1753
    1DIPC   D3A 6715  24.335   4.674   4.984  0.2194 -0.1656  0.3909
    1DIPC   C4A 6716  24.424   4.721   4.560 -0.1164  0.0725  0.1043
    1DIPC   C1B 6717  25.331   4.453   5.000 -0.0258 -0.1229  0.0639
    1DIPC   D2B 6718  25.278   4.575   4.504  0.1238  0.2414 -0.1610
    1DIPC   D3B 6719  25.094   4.159   4.584 -0.1463 -0.1583 -0.2144
    1DIPC   C4B 6720  24.685   4.332   4.835 -0.0038 -0.1114 -0.0701
    1DIPC   NC3 6721  22.568  16.584   6.491  0.2757  0.3160  0.1751
    1DIPC   PO4 6722  22.169  16.548   6.702 -0.3149 -0.1154  0.2011
    1DIPC   GL1 6723  21.983  16.534   6.423  0.1944 -0.3812 -0.2357
    1DIPC   GL2 6724  21.915  16.949   6.451 -0.0720  0.1744  0.1140
    1DIPC   C1A 6725  21.749  16.607   5.979 -0.0502 -0.1641  0.0930
    1DIPC   D2A 6726  21.497  16.812   5.607 -0.2666  0.0573 -0.2138
    1DIPC   D3A 6727  21.745  17.037   5.378  0.3409 -0.1048 -0.2931
    1DIPC   C4A 6728  21.542  17.480   5.251  0.1419 -0.0996  0.0111
    1DIPC   C1B 6729  21.901  17.423   6.358  0.0368  0.0070 -0.1441
    1DIPC   D2B 6730  21.826  17.560   6.045 -0.3375  0.1292 -0.0101
    1DIPC   D3B 6731  21.984  17.398   5.624 -0.1953  0.0321 -0.1995
    1DIPC   C4B 6732  21.994  17.627   5.279  0.2077 -0.1120 -0.0030
    1DIPC   NC3 6733  16.560   1.109   7.443  0.0762 -0.3147 -0.1139
    1DIPC   PO4 6734  16.417   0.737   7.312 -0.0080  0.2767  0.0251
    1DIPC   GL1 6735  16.540   0.415   6.971 -0.1927  0.1652  0.1803
    1DIPC   GL2 6736  16.642   0.429   6.710 -0.0382  0.1339 -0.0443
    1DIPC   C1A 6737  16.246   0.105   6.754  0.0158 -0.1448 -0.0493
    1DIPC   D2A 6738  15.905  -0.261   6.827  0.1555  0.0436 -0.2071
    1DIPC   D3A 6739  15.662   0.151   6.754  0.0439 -0.0660  0.0940
    1DIPC   C4A 6740  15.312   0.083   6.369  0.1848  0.0732  0.0907
    1DIPC   C1B 6741  16.762   0.685   6.418  0.1780  0.0394  0.1036
    1DIPC   D2B 6742  17.153   0.751   6.121 -0.0114 -0.1400  0.0441
    1DIPC   D3B 6743  16.890   0.728   5.760 -0.4071  0.0103 -0.0702
    1DIPC   C4B 6744  16.829   0.357   5.508  0.1807  0.2723  0.1060
    1DIPC   NC3 6745  23.715  19.645   7.460  0.2690 -0.0788 -0.3654
    1DIPC   PO4 6746  23.754  19.671   7.016  0.3058  0.0612  0.0722
    1DIPC   GL1 6747  23.812  19.529   6.583  0.0946 -0.2248 -0.0061
    1DIPC   GL2 6748  23.665  19.708   6.399  0.3399  0.1697  0.1181
    1DIPC   C1A 6749  24.175  19.501   6.215 -0.0646 -0.0728 -0.1189
    1DIPC   D2A 6750  24.164  19.110   5.915  0.0800 -0.0726  0.2389
    1DIPC   D3A 6751  24.467  19.394   5.853  0.0326  0.0406 -0.0384
    1DIPC   C4A 6752  24.471  19.749   5.660  0.1872  0.0503 -0.1731
    1DIPC   C1B 6753  23.922  19.860   6.005  0.1773 -0.3096  0.2699
    1DIPC   D2B 6754  23.973  20.207   5.731  0.3092 -0.1580  0.1342
    1DIPC   D3B 6755  23.975  20.061   5.282 -0.1330 -0.0290  0.0677
    1DIPC   C4B 6756  23.733  20.356   5.049 -0.1984 -0.1960  0.1479
    1DIPC   NC3 6757  21.400  17.843   7.224 -0.1719  0.2647  0.2057
    1DIPC   PO4 6758  21.699  18.135   6.969  0.0407  0.1719 -0.0573
    1DIPC   GL1 6759  21.471  18.051   6.641 -0.2813  0.0645  0.1135
    1DIPC   GL2 6760  21.528  17.746   6.702  0.0969  0.2101 -0.1821
    1DIPC   C1A 6761  21.516  17.919   6.180 -0.1461 -0.1321 -0.2416
    1DIPC   D2A 6762  21.399  17.872   5.752  0.0922 -0.0538  0.2866
    1DIPC   D3A 6763  21.261  17.989   5.333  0.0515 -0.0607  0.2660
    1DIPC   C4A 6764  20.973  17.758   5.142  0.4492 -0.2832 -0.0440
    1DIPC   C1B 6765  21.382  17.439   6.426  0.0720 -0.3090  0.1101
    1DIPC   D2B 6766  21.184  17.500   5.977 -0.1296  0.0904  0.2245
    1DIPC   D3B 6767  21.481  17.325   5.737  0.3291  0.0786  0.2388
    1DIPC   C4B 6768  21.771  17.073   5.962  0.2168  0.1280 -0.0752
    1DIPC   NC3 6769  23.646   7.537   6.461  0.1944 -0.2028 -0.3651
    1DIPC   PO4 6770  23.353   7.275   6.363  0.0067  0.1367  0.0548
    1DIPC   GL1 6771  23.304   7.575   6.057  0.0602  0.3138 -0.1921
    1DIPC   GL2 6772  23.114   7.420   5.845 -0.2367 -0.0400  0.0675
    1DIPC   C1A 6773  23.167   7.925   5.914 -0.1963 -0.0024  0.1126
    1DIPC   D2A 6774  23.342   8.193   5.655 -0.2515 -0.0520 -0.2572
    1DIPC   D3A 6775  23.171   8.575   5.812  0.2650 -0.0842  0.0745
    1DIPC   C4A 6776  23.402   8.951   5.791  0.2560  0.0735  0.0248
    1DIPC   C1B 6777  23.038   7.298   5.437  0.0278 -0.3950  0.1290
    1DIPC   D2B 6778  23.043   7.441   5.011 -0.4016  0.0143  0.1501
    1DIPC   D3B 6779  22.766   7.102   5.083  0.0829  0.2318 -0.0804
    1DIPC   C4B 6780  22.421   7.287   4.784  0.2403 -0.0791  0.2112
    1DIPC   NC3 6781  29.128  23.384   6.661  0.0120  0.1544 -0.3680
    1DIPC   PO4 6782  28.771  23.143   6.537 -0.1823 -0.1689  0.3358
    1DIPC   GL1 6783  28.537  23.034   6.150  0.0081  0.1245 -0.1173
    1DIPC   GL2 6784  28.635  22.814   6.096 -0.0924 -0.0920  0.0739
    1DIPC   C1A 6785  28.101  22.905   5.987  0.1817  0.2007 -0.1168
    1DIPC   D2A 6786  27.957  22.550   5.869 -0.1786  0.0197 -0.2147
    1DIPC   D3A 6787  27.674  22.731   6.174  0.3777 -0.0110  0.1563
    1DIPC   C4A 6788  27.247  22.807   6.061  0.1171 -0.0277  0.1674
    1DIPC   C1B 6789  28.739  22.628   5.749  0.0781  0.1847 -0.3765
    1DIPC   D2B 6790  28.721  22.812   5.286  0.0362  0.2496 -0.1969
    1DIPC   D3B 6791  28.418  22.990   5.072  0.0212 -0.1426  0.3790
    1DIPC   C4B 6792  28.215  22.686   4.739  0.3860 -0.3611 -0.1877
    1DIPC   NC3 6793  29.172   7.604   6.192 -0.3098 -0.0935  0.0129
    1DIPC   PO4 6794  29.563   7.568   5.847  0.1515  0.0341  0.2406
    1DIPC   GL1 6795  29.692   7.634   5.456  0.2279 -0.0258  0.1685
    1DIPC   GL2 6796  29.851   7.948   5.454 -0.1061  0.3036  0.1696
    1DIPC   C1A 6797  29.736   7.366   5.117 -0.1552 -0.2804  0.1466
    1DIPC   D2A 6798  29.851   7.258   4.691  0.3003  0.1504 -0.1583
    1DIPC   D3A 6799  30.158   6.967   4.797 -0.2964 -0.2269 -0.0906
    1DIPC   C4A 6800  29.997   6.914   5.274  0.0021  0.0209 -0.1761
    1DIPC   C1B 6801  30.195   7.985   5.267 -0.0357 -0.0408  0.1069
    1DIPC   D2B 6802  30.480   7.749   4.974  0.1492 -0.0987  0.0810
    1DIPC   D3B 6803  30.352   7.461   4.684 -0.1493  0.0908  0.1540
    1DIPC   C4B 6804  30.633   7.424   4.328  0.0085 -0.2218 -0.2406
    1DIPC   NC3 6805  15.508   2.942   7.004  0.1310 -0.2564  0.0320
    1DIPC   PO4 6806  15.905   2.847   7.165  0.2704  0.1108  0.0269
    1DIPC   GL1 6807  15.888   2.985   6.685  0.0148 -0.0189  0.1017
    1DIPC   GL2 6808  15.687   2.805   6.557  0.0771  0.0301 -0.0318
    1DIPC   C1A 6809  15.833   3.347   6.361 -0.4257  0.0645 -0.1401
    1DIPC   D2A 6810  15.901   3.616   6.019  0.2550 -0.1290 -0.0304
    1DIPC   D3A 6811  16.158   3.383   5.855 -0.1962  0.1646  0.0291
    1DIPC   C4A 6812  16.357   3.506   5.488  0.0122 -0.1411  0.0176
    1DIPC   C1B 6813  15.988   2.904   6.238 -0.0407  0.1237 -0.1304
    1DIPC   D2B 6814  16.402   3.210   6.299 -0.2441 -0.2025 -0.3888
    1DIPC   D3B 6815  16.529   2.966   5.948  0.0388  0.0706  0.2207
    1DIPC   C4B 6816  16.702   3.083   5.499 -0.3447  0.0158  0.1095
    1DIPC   NC3 6817   0.005   3.841   6.056 -0.3331  0.0695 -0.2118
    1DIPC   PO4 6818   0.365   4.120   6.007 -0.1049 -0.1062  0.1207
    1DIPC   GL1 6819   0.321   3.922   5.675 -0.1456 -0.1661  0.1735
    1DIPC   GL2 6820   0.071   4.015   5.502  0.0390  0.0793  0.1855
    1DIPC   C1A 6821   0.477   4.110   5.286  0.0810 -0.0527 -0.1055
    1DIPC   D2A 6822   0.927   4.235   5.063  0.0999  0.1431  0.0344
    1DIPC   D3A 6823   1.104   3.976   4.820  0.0029  0.1437  0.3703
    1DIPC   C4A 6824   1.081   3.547   4.581 -0.0658  0.1401 -0.0221
    1DIPC   C1B 6825   0.099   4.064   4.957 -0.2590  0.0908  0.1814
    1DIPC   D2B 6826   0.074   4.198   4.368  0.1652 -0.2697 -0.0613
    1DIPC   D3B 6827  -0.318   4.325   4.559  0.0024 -0.1377 -0.0540
    1DIPC   C4B 6828  -0.329   4.632   4.868  0.0464 -0.1517  0.1302
    1DIPC   NC3 6829  19.418   3.644   6.681  0.3234 -0.2522 -0.1335
    1DIPC   PO4 6830  18.987   3.725   6.650 -0.0440 -0.2579  0.0584
    1DIPC   GL1 6831  19.132   3.708   6.223 -0.2756  0.0345 -0.2640
    1DIPC   GL2 6832  19.374   3.928   6.210 -0.0253  0.0951  0.3312
    1DIPC   C1A 6833  19.114   3.785   5.800 -0.1004 -0.1438 -0.0814
    1DIPC   D2A 6834  18.958   3.999   5.503  0.1016  0.1613 -0.1762
    1DIPC   D3A 6835  19.244   4.202   5.189 -0.1013 -0.2709  0.0134
    1DIPC   C4A 6836  19.091   4.584   5.057 -0.0199  0.4444  0.1655
    1DIPC   C1B 6837  19.460   4.176   5.862  0.4879  0.1375 -0.2699
    1DIPC   D2B 6838  19.386   4.448   5.607 -0.0110  0.0409  0.0498
    1DIPC   D3B 6839  18.978   4.462   5.618  0.1236 -0.2613 -0.1510
    1DIPC   C4B 6840  18.695   4.587   5.357 -0.0504 -0.1174  0.0932
    1DIPC   NC3 6841  22.236  23.878   6.792 -0.1040 -0.0443 -0.4043
    1DIPC   PO4 6842  22.707  23.807   6.769  0.1050 -0.0889 -0.2069
    1DIPC   GL1 6843  22.750  23.917   6.338 -0.1080 -0.3432  0.1138
    1DIPC   GL2 6844  22.392  23.842   6.218  0.0875 -0.3161  0.0881
    1DIPC   C1A 6845  22.833  23.728   5.991 -0.1383 -0.0197  0.2019
    1DIPC   D2A 6846  22.685  23.307   5.848  0.1779  0.2668  0.0021
    1DIPC   D3A 6847  22.739  23.232   5.472  0.0223  0.0119  0.1328
    1DIPC   C4A 6848  23.097  23.218   5.266 -0.0061 -0.3186 -0.2589
    1DIPC   C1B 6849  22.451  23.869   5.726  0.1242  0.0975  0.2581
    1DIPC   D2B 6850  22.316  23.634   5.406  0.1245  0.1628  0.1959
    1DIPC   D3B 6851  22.152  23.284   5.257 -0.0594  0.1058 -0.0542
    1DIPC   C4B 6852  22.401  23.132   4.833 -0.1184 -0.1686 -0.0822
    1DIPC   NC3 6853  29.227  26.659   7.193  0.4204 -0.3307 -0.0200
    1DIPC   PO4 6854  29.315  26.478   6.845 -0.0448 -0.3638 -0.3791
    1DIPC   GL1 6855  29.157  26.308   6.379 -0.1810  0.2429  0.1628
    1DIPC   GL2 6856  28.823  26.121   6.377 -0.0714 -0.1410 -0.2983
    1DIPC   C1A 6857  29.410  26.110   6.001 -0.2082 -0.3695  0.2356
    1DIPC   D2A 6858  29.497  25.894   5.554 -0.3694  0.2706 -0.1788
    1DIPC   D3A 6859  29.771  26.039   5.189  0.0877 -0.0847  0.0058
    1DIPC   C4A 6860  30.091  25.966   4.874 -0.0557 -0.3593 -0.0094
    1DIPC   C1B 6861  28.812  25.977   6.007  0.0507 -0.0397  0.1852
    1DIPC   D2B 6862  29.018  25.821   5.719  0.2576 -0.0845  0.0118
    1DIPC   D3B 6863  28.770  26.012   5.355 -0.0743  0.1222  0.2297
    1DIPC   C4B 6864  28.530  25.609   5.121 -0.0804  0.2714 -0.0865
    1DIPC   NC3 6865   9.018  28.475   7.096  0.1324 -0.0539  0.1314
    1DIPC   PO4 6866   8.521  28.498   7.153 -0.0412 -0.2323 -0.6420
    1DIPC   GL1 6867   8.570  28.241   6.742 -0.0708  0.1649  0.1658
    1DIPC   GL2 6868   8.468  27.880   6.739  0.0140  0.1282 -0.1497
    1DIPC   C1A 6869   8.723  28.278   6.354  0.0631  0.2355  0.3308
    1DIPC   D2A 6870   8.865  28.412   5.944  0.3652  0.1515 -0.0602
    1DIPC   D3A 6871   9.120  28.052   5.706 -0.2606 -0.2245 -0.0071
    1DIPC   C4A 6872   8.947  28.001   5.340  0.3646 -0.0344  0.3334
    1DIPC   C1B 6873   8.334  27.933   6.352  0.3880 -0.1784 -0.0935
    1DIPC   D2B 6874   8.145  27.746   5.985  0.2756 -0.0730 -0.2027
    1DIPC   D3B 6875   8.011  27.998   5.636  0.0970  0.0862  0.1026
    1DIPC   C4B 6876   8.138  28.147   5.238  0.1831  0.1134 -0.1669
    1DIPC   NC3 6877  29.199   5.817   6.203  0.1557 -0.1078 -0.1130
    1DIPC   PO4 6878  29.336   6.267   6.100  0.2438 -0.2345  0.0274
    1DIPC   GL1 6879  29.549   6.174   5.702 -0.0012  0.2237  0.1219
    1DIPC   GL2 6880  29.666   5.926   5.813  0.0126 -0.0278 -0.2142
    1DIPC   C1A 6881  29.336   6.090   5.284 -0.0304  0.2469 -0.3766
    1DIPC   D2A 6882  29.354   6.186   4.852 -0.1648  0.0915 -0.2088
    1DIPC   D3A 6883  29.608   6.084   4.453  0.0018 -0.1104 -0.1926
    1DIPC   C4A 6884  30.105   6.244   4.411 -0.0900  0.0510 -0.6967
    1DIPC   C1B 6885  29.856   5.914   5.356 -0.0679  0.1420  0.2531
    1DIPC   D2B 6886  29.904   6.081   4.910  0.0074 -0.2807  0.1016
    1DIPC   D3B 6887  30.129   6.489   4.927 -0.0637 -0.1339  0.1683
    1DIPC   C4B 6888  30.432   6.621   4.658  0.6376 -0.2527  0.1952
    1DIPC   NC3 6889   8.931   4.839   7.762  0.1228  0.1543  0.1108
    1DIPC   PO4 6890   8.871   4.968   7.338  0.3636 -0.2684  0.1984
    1DIPC   GL1 6891   9.029   5.136   6.883  0.0339  0.1514  0.3492
    1DIPC   GL2 6892   9.103   4.778   6.814 -0.2155 -0.0991 -0.1365
    1DIPC   C1A 6893   9.224   5.393   6.519 -0.0102  0.0040  0.2313
    1DIPC   D2A 6894   9.061   5.710   6.297  0.0957  0.0189 -0.1787
    1DIPC   D3A 6895   8.925   5.349   6.038 -0.0613  0.4186 -0.0071
    1DIPC   C4A 6896   9.162   5.236   5.728 -0.2208 -0.0101  0.1401
    1DIPC   C1B 6897   9.015   4.936   6.371  0.0374 -0.2897  0.1331
    1DIPC   D2B 6898   8.833   4.840   5.891  0.0788  0.1138 -0.0038
    1DIPC   D3B 6899   8.981   4.695   5.540  0.1612 -0.0917  0.3716
    1DIPC   C4B 6900   8.720   4.716   5.259 -0.1421  0.2734  0.1458
    1DIPC   NC3 6901  18.327   0.263   7.231  0.0952 -0.0732 -0.3269
    1DIPC   PO4 6902  17.995   0.709   7.174 -0.0997  0.0204 -0.1737
    1DIPC   GL1 6903  17.742   0.677   6.906 -0.2348 -0.2687 -0.1026
    1DIPC   GL2 6904  17.464   0.818   6.778  0.2577 -0.0462  0.1791
    1DIPC   C1A 6905  17.534   0.362   6.541 -0.0498 -0.3427  0.1880
    1DIPC   D2A 6906  17.447   0.327   6.067 -0.0695 -0.2883 -0.0252
    1DIPC   D3A 6907  17.518  -0.072   6.047  0.1222  0.5635 -0.2968
    1DIPC   C4A 6908  17.567  -0.367   5.762  0.1957 -0.0043 -0.0973
    1DIPC   C1B 6909  17.120   1.047   6.545  0.0932  0.1597  0.4355
    1DIPC   D2B 6910  17.193   1.267   6.173 -0.2702 -0.1115  0.1963
    1DIPC   D3B 6911  16.852   1.359   6.187 -0.0770  0.1919  0.1151
    1DIPC   C4B 6912  16.630   1.216   6.524  0.2031  0.2215  0.0094
    1DIPC   NC3 6913  28.292  26.229   7.071  0.0426  0.0270  0.2976
    1DIPC   PO4 6914  28.620  25.878   6.976 -0.3402  0.0508  0.0729
    1DIPC   GL1 6915  28.583  25.700   6.581  0.0193 -0.0445 -0.4382
    1DIPC   GL2 6916  28.311  25.612   6.532  0.3896  0.0446  0.1634
    1DIPC   C1A 6917  28.585  25.565   6.096 -0.3121  0.2040 -0.1313
    1DIPC   D2A 6918  28.555  25.556   5.676  0.1196 -0.0840 -0.0122
    1DIPC   D3A 6919  28.290  25.902   5.524  0.0991 -0.0987 -0.1532
    1DIPC   C4A 6920  28.073  25.887   5.102 -0.0070 -0.1063 -0.1238
    1DIPC   C1B 6921  28.305  25.932   6.258  0.0759 -0.1196 -0.0602
    1DIPC   D2B 6922  28.113  26.204   6.036  0.0376  0.1401  0.0161
    1DIPC   D3B 6923  28.453  26.436   5.899 -0.1685 -0.1698  0.0201
    1DIPC   C4B 6924  28.548  26.363   5.550 -0.2784  0.0482  0.1490
    1DIPC   NC3 6925  23.581  20.093   6.852 -0.1580  0.1020 -0.3306
    1DIPC   PO4 6926  23.329  19.664   6.712 -0.1368 -0.0590  0.1134
    1DIPC   GL1 6927  23.152  19.393   6.453  0.0272 -0.0290  0.1496
    1DIPC   GL2 6928  23.088  19.645   6.241 -0.3328 -0.3348  0.5152
    1DIPC   C1A 6929  23.267  19.147   6.098  0.2285 -0.0019  0.0133
    1DIPC   D2A 6930  23.297  18.728   5.865 -0.1230 -0.2007 -0.1348
    1DIPC   D3A 6931  23.688  18.495   5.681 -0.0018  0.2051  0.0184
    1DIPC   C4A 6932  23.608  18.581   5.270 -0.0766 -0.2758  0.1675
    1DIPC   C1B 6933  22.928  20.021   5.982 -0.0192  0.0230 -0.3684
    1DIPC   D2B 6934  22.699  20.161   5.787  0.1433 -0.2083 -0.0379
    1DIPC   D3B 6935  23.043  19.897   5.501  0.4647  0.2472 -0.1111
    1DIPC   C4B 6936  22.995  19.895   5.030 -0.0648  0.1184 -0.0597
    1DIPC   NC3 6937  28.546   3.656   5.848  0.2906  0.0402  0.3423
    1DIPC   PO4 6938  28.847   3.850   6.142 -0.2421 -0.0008 -0.0381
    1DIPC   GL1 6939  29.031   3.730   5.726 -0.1934  0.2455 -0.3719
    1DIPC   GL2 6940  28.918   3.920   5.520  0.0145 -0.4266  0.0138
    1DIPC   C1A 6941  29.244   3.559   5.408 -0.2058 -0.1306  0.1137
    1DIPC   D2A 6942  29.656   3.628   5.240 -0.1328 -0.2789  0.0586
    1DIPC   D3A 6943  29.795   3.439   5.587 -0.1290  0.1366  0.3330
    1DIPC   C4A 6944  30.221   3.356   5.629 -0.0265 -0.1733  0.2322
    1DIPC   C1B 6945  29.029   3.887   5.037  0.0380  0.2264  0.1828
    1DIPC   D2B 6946  29.171   3.772   4.650 -0.0750  0.2746  0.2342
    1DIPC   D3B 6947  29.592   3.648   4.744 -0.2703 -0.0894 -0.0469
    1DIPC   C4B 6948  29.929   4.053   4.712 -0.0221 -0.0308  0.1744
    1DIPC   NC3 6949  28.059  24.141   6.688 -0.1335 -0.1030  0.4456
    1DIPC   PO4 6950  27.890  23.674   6.644 -0.1316 -0.0550 -0.3388
    1DIPC   GL1 6951  27.700  23.963   6.321  0.0401 -0.0674 -0.3292
    1DIPC   GL2 6952  28.003  24.029   6.203  0.2422 -0.2710 -0.0206
    1DIPC   C1A 6953  27.429  24.200   6.149  0.5529 -0.0547  0.1059
    1DIPC   D2A 6954  26.964  24.315   6.029  0.2597 -0.1764  0.0551
    1DIPC   D3A 6955  26.862  24.261   5.587 -0.0605 -0.1332  0.0039
    1DIPC   C4A 6956  26.548  24.010   5.482 -0.1888 -0.1959  0.2102
    1DIPC   C1B 6957  27.867  24.271   5.932 -0.0160 -0.0916 -0.2166
    1DIPC   D2B 6958  27.693  24.282   5.503 -0.1788 -0.3294 -0.1401
    1DIPC   D3B 6959  27.367  24.372   5.711  0.3361  0.2694 -0.0400
    1DIPC   C4B 6960  27.319  24.756   5.986  0.2472  0.0834  0.0601
    1DIPC   NC3 6961  25.222  25.010   6.563  0.2074  0.0347  0.2183
    1DIPC   PO4 6962  24.749  24.813   6.623 -0.1664  0.0519 -0.1779
    1DIPC   GL1 6963  24.686  24.809   6.076  0.1478  0.5040  0.0514
    1DIPC   GL2 6964  24.685  24.477   5.861  0.1506  0.1588 -0.1347
    1DIPC   C1A 6965  24.653  25.063   5.776 -0.0663  0.2696  0.1732
    1DIPC   D2A 6966  24.419  25.307   5.454 -0.1272 -0.0661  0.1466
    1DIPC   D3A 6967  24.146  25.540   5.172 -0.0066  0.0132 -0.2763
    1DIPC   C4A 6968  23.934  25.892   5.328 -0.2624 -0.1427  0.2144
    1DIPC   C1B 6969  24.501  24.647   5.513  0.0462  0.2968 -0.1277
    1DIPC   D2B 6970  24.179  24.912   5.310 -0.0294  0.3612  0.0943
    1DIPC   D3B 6971  24.244  24.499   5.076  0.0660 -0.1434  0.0167
    1DIPC   C4B 6972  24.043  24.164   4.742  0.1071 -0.1556  0.2635
    1DIPC   NC3 6973   2.028  13.143   5.915  0.2398  0.3078  0.1748
    1DIPC   PO4 6974   1.699  13.314   6.026 -0.1280 -0.1208 -0.0728
    1DIPC   GL1 6975   1.619  13.251   5.572  0.0023  0.0356 -0.0119
    1DIPC   GL2 6976   1.331  13.223   5.552 -0.0503  0.0073  0.2164
    1DIPC   C1A 6977   1.746  13.278   5.137 -0.1801  0.0227  0.0198
    1DIPC   D2A 6978   1.536  12.972   4.850 -0.1860 -0.3845 -0.1259
    1DIPC   D3A 6979   1.639  12.944   4.413  0.0544  0.2626  0.2449
    1DIPC   C4A 6980   1.551  13.305   4.130  0.0463 -0.2332 -0.0048
    1DIPC   C1B 6981   1.465  12.849   5.390  0.1227  0.2208  0.0657
    1DIPC   D2B 6982   1.648  12.520   5.020 -0.1419 -0.0723  0.1466
    1DIPC   D3B 6983   1.668  12.519   4.635 -0.4636 -0.1459 -0.1868
    1DIPC   C4B 6984   2.094  12.332   4.598 -0.1157  0.0530  0.0144
    1DIPC   NC3 6985   6.710   1.266   6.791 -0.0563 -0.1513  0.0247
    1DIPC   PO4 6986   6.615   0.925   6.946  0.2323 -0.3486  0.0196
    1DIPC   GL1 6987   6.309   1.012   6.603  0.2959 -0.2052 -0.1201
    1DIPC   GL2 6988   6.035   0.687   6.571  0.0464  0.1583 -0.2591
    1DIPC   C1A 6989   6.158   1.057   6.156 -0.0200  0.0172 -0.5361
    1DIPC   D2A 6990   5.875   1.269   5.961  0.0158 -0.1244  0.3424
    1DIPC   D3A 6991   5.942   1.341   5.511  0.0580 -0.0455  0.1673
    1DIPC   C4A 6992   5.710   1.240   5.159 -0.1420 -0.2588  0.0095
    1DIPC   C1B 6993   6.494   0.638   6.347  0.1209 -0.2504 -0.0924
    1DIPC   D2B 6994   6.882   0.868   6.472 -0.1650 -0.1931  0.3440
    1DIPC   D3B 6995   7.245   0.904   6.207 -0.1944  0.4244  0.0783
    1DIPC   C4B 6996   7.158   1.018   5.768  0.4735 -0.1012 -0.0464
    1DIPC   NC3 6997   2.759  27.685   6.555  0.3019 -0.3215 -0.0047
    1DIPC   PO4 6998   3.167  27.957   6.536 -0.0331 -0.1436  0.0170
    1DIPC   GL1 6999   3.423  27.900   6.166  0.0294 -0.0031 -0.2008
    1DIPC   GL2 7000   3.199  27.687   5.963  0.1495 -0.3530  0.0481
    1DIPC   C1A 7001   3.681  27.603   5.937  0.2192  0.1474 -0.0285
    1DIPC   D2A 7002   3.708  27.210   5.803 -0.1838  0.0755 -0.1817
    1DIPC   D3A 7003   3.378  27.423   5.565  0.1395  0.1986  0.3246
    1DIPC   C4A 7004   3.393  27.456   5.032 -0.0937 -0.3885 -0.0885
    1DIPC   C1B 7005   3.135  27.966   5.551 -0.0912 -0.2062 -0.0848
    1DIPC   D2B 7006   2.860  28.046   5.168 -0.0976 -0.1835 -0.1256
    1DIPC   D3B 7007   3.271  27.947   4.890 -0.0758 -0.3124  0.5484
    1DIPC   C4B 7008   3.193  27.587   4.506  0.1085  0.1741  0.2581
    1DIPC   NC3 7009   1.834  24.847   6.307 -0.0874 -0.0506  0.3290
    1DIPC   PO4 7010   1.445  24.986   6.283 -0.0310 -0.0772  0.1494
    1DIPC   GL1 7011   1.562  24.935   5.883  0.0238  0.1287  0.0066
    1DIPC   GL2 7012   1.487  24.618   5.898 -0.4541  0.2964 -0.1210
    1DIPC   C1A 7013   1.238  24.991   5.507 -0.1467 -0.1284 -0.1968
    1DIPC   D2A 7014   0.807  24.937   5.447  0.0917  0.0615 -0.0980
    1DIPC   D3A 7015   0.788  24.770   5.056  0.3375 -0.0954  0.0777
    1DIPC   C4A 7016   0.475  25.057   5.048 -0.2230 -0.0341 -0.0657
    1DIPC   C1B 7017   1.655  24.612   5.398  0.3356  0.3505  0.3298
    1DIPC   D2B 7018   1.589  24.839   4.984  0.0763 -0.4802 -0.0067
    1DIPC   D3B 7019   1.282  24.877   4.777  0.2387  0.2146 -0.1656
    1DIPC   C4B 7020   1.290  24.800   4.284 -0.1003  0.2163 -0.3370
    1DIPC   NC3 7021   3.196  24.960   6.374  0.0697 -0.0155 -0.0833
    1DIPC   PO4 7022   3.351  24.982   6.043  0.1215 -0.1518  0.0944
    1DIPC   GL1 7023   3.450  24.741   5.774  0.0282  0.0982 -0.1745
    1DIPC   GL2 7024   3.481  24.464   5.708  0.0229  0.0027  0.1629
    1DIPC   C1A 7025   3.313  24.838   5.393 -0.0111  0.0344  0.1271
    1DIPC   D2A 7026   3.479  24.557   5.172 -0.1123 -0.0015  0.3202
    1DIPC   D3A 7027   3.122  24.638   4.934  0.0546  0.0532  0.0556
    1DIPC   C4A 7028   3.036  24.968   4.626  0.0582  0.0733 -0.0530
    1DIPC   C1B 7029   3.481  24.123   5.478  0.0505  0.0725 -0.4785
    1DIPC   D2B 7030   3.854  23.789   5.326  0.1748  0.0317  0.2307
    1DIPC   D3B 7031   3.878  23.983   5.006  0.0391 -0.1634 -0.1077
    1DIPC   C4B 7032   3.446  24.122   4.849 -0.1646 -0.0643  0.1181
    1DIPC   NC3 7033  21.329  27.182   6.703 -0.0582  0.0650  0.0277
    1DIPC   PO4 7034  21.189  26.776   6.651 -0.1660 -0.4131 -0.0304
    1DIPC   GL1 7035  21.395  26.612   6.398  0.3008  0.0875  0.1175
    1DIPC   GL2 7036  21.182  26.624   6.148 -0.0486 -0.0462  0.2713
    1DIPC   C1A 7037  21.660  26.593   5.930  0.3735 -0.2593 -0.3278
    1DIPC   D2A 7038  21.954  26.530   5.613  0.0958 -0.0636 -0.0800
    1DIPC   D3A 7039  22.317  26.172   5.523 -0.1271 -0.1891 -0.0408
    1DIPC   C4A 7040  22.357  25.780   5.275  0.0404  0.0550  0.0677
    1DIPC   C1B 7041  21.246  26.803   5.730 -0.2341  0.1712 -0.1156
    1DIPC   D2B 7042  21.085  26.706   5.313 -0.1004 -0.0866 -0.2380
    1DIPC   D3B 7043  21.040  27.014   5.025  0.1751  0.0854  0.1751
    1DIPC   C4B 7044  20.686  27.182   5.006  0.1516 -0.0784 -0.0406
    1DIPC   NC3 7045  10.924  27.955   7.351  0.3060  0.0380  0.2838
    1DIPC   PO4 7046  10.911  27.419   7.279 -0.0809  0.1289 -0.0285
    1DIPC   GL1 7047  10.937  27.089   7.008 -0.1126  0.3065  0.0456
    1DIPC   GL2 7048  10.744  27.329   6.812  0.0068 -0.0295  0.3602
    1DIPC   C1A 7049  11.055  26.830   6.581 -0.3764  0.1929  0.2148
    1DIPC   D2A 7050  11.082  26.543   6.297  0.2454 -0.4915 -0.0290
    1DIPC   D3A 7051  11.325  26.085   6.260  0.1894 -0.0245 -0.0020
    1DIPC   C4A 7052  11.646  26.067   5.903 -0.3666 -0.1595  0.0530
    1DIPC   C1B 7053  10.891  27.272   6.458 -0.0269 -0.0698 -0.2094
    1DIPC   D2B 7054  10.817  27.324   6.086  0.1117 -0.0918 -0.0037
    1DIPC   D3B 7055  10.920  26.901   5.949 -0.0977  0.0965 -0.0563
    1DIPC   C4B 7056  11.278  26.756   5.619 -0.0439 -0.1295 -0.0826
    1DIPC   NC3 7057   1.751  12.665   6.123  0.0283 -0.1797 -0.0893
    1DIPC   PO4 7058   2.105  12.525   6.299 -0.2170  0.1698  0.0404
    1DIPC   GL1 7059   2.316  12.701   6.008  0.1211  0.2284  0.2468
    1DIPC   GL2 7060   2.086  12.675   5.760  0.0510  0.0811  0.1728
    1DIPC   C1A 7061   2.702  12.844   5.924 -0.1580 -0.0015  0.4258
    1DIPC   D2A 7062   2.945  12.797   5.614 -0.0748  0.3174  0.3901
    1DIPC   D3A 7063   2.949  12.381   5.388  0.1847  0.0653 -0.0719
    1DIPC   C4A 7064   2.904  12.227   4.983  0.0241 -0.0409  0.3187
    1DIPC   C1B 7065   2.028  12.627   5.323 -0.1207 -0.2340  0.0993
    1DIPC   D2B 7066   2.137  12.831   4.885 -0.2106  0.0127 -0.0068
    1DIPC   D3B 7067   2.291  13.198   4.992 -0.2554 -0.2386  0.1930
    1DIPC   C4B 7068   2.387  13.407   4.619 -0.1708  0.1475  0.1047
    1DIPC   NC3 7069   7.210   7.498   6.531  0.0423  0.0613 -0.0279
    1DIPC   PO4 7070   7.098   7.911   6.570 -0.0862 -0.1475 -0.2085
    1DIPC   GL1 7071   7.360   8.075   6.219  0.1609 -0.1639  0.0823
    1DIPC   GL2 7072   7.551   7.764   6.211 -0.1265  0.0087 -0.0965
    1DIPC   C1A 7073   7.447   8.103   5.712  0.2686  0.2875 -0.2476
    1DIPC   D2A 7074   7.791   8.165   5.448  0.3442  0.0911  0.2834
    1DIPC   D3A 7075   7.347   8.202   5.279  0.2279  0.1772  0.0681
    1DIPC   C4A 7076   6.995   8.002   5.294 -0.1874  0.0951 -0.0035
    1DIPC   C1B 7077   7.571   7.530   5.832  0.0235 -0.2225  0.2082
    1DIPC   D2B 7078   7.549   7.278   5.416  0.1661 -0.1372 -0.0027
    1DIPC   D3B 7079   7.719   7.360   4.966  0.0060  0.1309  0.3644
    1DIPC   C4B 7080   7.601   7.451   4.582  0.2324  0.1949  0.0538
    1DIPC   NC3 7081  16.628  25.435   7.015  0.1187 -0.0170  0.0327
    1DIPC   PO4 7082  16.583  25.961   6.969 -0.3544 -0.0815  0.1294
    1DIPC   GL1 7083  16.391  26.044   6.614 -0.2339  0.0662  0.2661
    1DIPC   GL2 7084  16.156  25.998   6.409 -0.0812 -0.3322  0.1353
    1DIPC   C1A 7085  16.416  26.508   6.553  0.3147 -0.4867  0.0592
    1DIPC   D2A 7086  16.392  26.819   6.238 -0.0951  0.0055 -0.0540
    1DIPC   D3A 7087  16.543  26.577   5.878  0.0391 -0.0219 -0.1778
    1DIPC   C4A 7088  16.603  26.548   5.507  0.0006  0.1201  0.2900
    1DIPC   C1B 7089  15.958  25.911   6.058 -0.2708  0.1073  0.1911
    1DIPC   D2B 7090  15.910  25.886   5.492 -0.0054 -0.1574  0.1643
    1DIPC   D3B 7091  15.885  25.546   5.253 -0.0237  0.2058 -0.0606
    1DIPC   C4B 7092  16.225  25.102   5.471  0.1114  0.0312  0.1898
    1DIPC   NC3 7093  25.781  29.250   6.678  0.0268  0.2652  0.1236
    1DIPC   PO4 7094  26.033  29.608   6.592  0.1062 -0.0297 -0.1756
    1DIPC   GL1 7095  25.797  29.483   6.214 -0.2592  0.0518 -0.0133
    1DIPC   GL2 7096  25.908  29.246   6.055  0.3364  0.0982 -0.1168
    1DIPC   C1A 7097  25.567  29.685   5.911 -0.2511  0.1709  0.1698
    1DIPC   D2A 7098  25.532  29.862   5.644  0.3991 -0.0986 -0.1042
    1DIPC   D3A 7099  25.259  29.446   5.606  0.2606 -0.1207  0.0529
    1DIPC   C4A 7100  24.775  29.402   5.616  0.0006 -0.1319  0.1187
    1DIPC   C1B 7101  25.862  28.875   5.931 -0.0541  0.0157  0.1235
    1DIPC   D2B 7102  26.045  28.673   5.615  0.4138 -0.1357 -0.2330
    1DIPC   D3B 7103  26.301  28.804   5.281  0.2702  0.0093 -0.2434
    1DIPC   C4B 7104  26.312  29.316   5.034  0.2653 -0.0685  0.2323
    1DIPC   NC3 7105   7.730  24.643   6.501  0.0391  0.0093 -0.2121
    1DIPC   PO4 7106   7.771  24.307   6.273  0.1214 -0.3223  0.1652
    1DIPC   GL1 7107   7.798  24.202   5.878 -0.0187 -0.0418 -0.1079
    1DIPC   GL2 7108   7.498  24.171   5.640  0.1599 -0.1160 -0.0262
    1DIPC   C1A 7109   7.939  24.281   5.373  0.3102 -0.0705  0.1550
    1DIPC   D2A 7110   8.177  24.404   5.062  0.2309  0.1745 -0.1533
    1DIPC   D3A 7111   7.950  24.785   5.179 -0.1303  0.1003 -0.0256
    1DIPC   C4A 7112   7.483  24.698   5.468 -0.3506 -0.1619 -0.0374
    1DIPC   C1B 7113   7.462  24.153   5.216  0.1632  0.1831 -0.1035
    1DIPC   D2B 7114   7.711  24.323   4.884  0.0505  0.1643 -0.1662
    1DIPC   D3B 7115   7.380  24.668   4.890 -0.1015 -0.2627 -0.5651
    1DIPC   C4B 7116   7.510  25.037   4.993 -0.1416 -0.1033 -0.0391
    1DIPC   NC3 7117  12.234   3.567   7.897  0.1572  0.0078  0.4079
    1DIPC   PO4 7118  12.162   3.296   7.584 -0.0143  0.0721  0.1557
    1DIPC   GL1 7119  12.051   3.354   7.153 -0.3543 -0.0861  0.0153
    1DIPC   GL2 7120  12.259   3.264   6.979  0.0613 -0.0433 -0.0387
    1DIPC   C1A 7121  11.842   3.699   7.062 -0.4981 -0.2355  0.1639
    1DIPC   D2A 7122  11.778   3.739   6.619 -0.1204 -0.0473 -0.2507
    1DIPC   D3A 7123  12.077   3.744   6.412  0.2774  0.0726 -0.0585
    1DIPC   C4A 7124  12.058   3.414   6.100  0.0617  0.0386 -0.1738
    1DIPC   C1B 7125  12.376   3.700   6.934  0.0823  0.0604  0.3980
    1DIPC   D2B 7126  12.485   3.836   6.677  0.0646  0.2881  0.0597
    1DIPC   D3B 7127  12.527   4.004   6.197 -0.0176  0.1313 -0.0696
    1DIPC   C4B 7128  12.187   3.825   5.845 -0.0949  0.0261  0.0494
    1DIPC   NC3 7129   6.179   7.874   6.894 -0.0187  0.1483  0.0499
    1DIPC   PO4 7130   6.242   8.030   6.508  0.0101 -0.1321 -0.1236
    1DIPC   GL1 7131   6.682   7.967   6.287  0.2414  0.2204 -0.1786
    1DIPC   GL2 7132   6.768   7.680   6.265  0.0767  0.1130  0.0810
    1DIPC   C1A 7133   6.967   7.908   5.850 -0.0754 -0.1044  0.3367
    1DIPC   D2A 7134   7.153   7.605   5.531 -0.2717  0.0499 -0.0647
    1DIPC   D3A 7135   7.491   7.740   5.330 -0.2749  0.0898 -0.1120
    1DIPC   C4A 7136   7.886   7.688   5.481 -0.0792 -0.2818 -0.2951
    1DIPC   C1B 7137   6.413   7.642   5.877 -0.2353  0.0097  0.2066
    1DIPC   D2B 7138   5.926   7.551   5.897 -0.1494  0.1147 -0.1610
    1DIPC   D3B 7139   6.052   7.152   5.677 -0.2226  0.0210 -0.0676
    1DIPC   C4B 7140   5.973   7.064   5.229 -0.0968 -0.2459 -0.2822
    1DIPC   NC3 7141   4.421  21.333   6.105  0.0400 -0.1686 -0.0456
    1DIPC   PO4 7142   4.281  21.588   5.740 -0.2027  0.2294  0.2899
    1DIPC   GL1 7143   4.240  21.496   5.361  0.0716  0.1218  0.1163
    1DIPC   GL2 7144   3.903  21.439   5.427 -0.1017  0.2511 -0.2307
    1DIPC   C1A 7145   4.263  21.621   4.960  0.1747  0.1526  0.2229
    1DIPC   D2A 7146   4.685  21.702   4.778  0.0961  0.1011  0.0578
    1DIPC   D3A 7147   4.468  21.660   4.481 -0.0949 -0.3248 -0.3340
    1DIPC   C4A 7148   4.442  21.966   4.191  0.0731  0.2684  0.1634
    1DIPC   C1B 7149   3.927  21.253   4.979  0.3831 -0.5623 -0.0385
    1DIPC   D2B 7150   4.127  21.315   4.559  0.0728 -0.1264  0.1073
    1DIPC   D3B 7151   3.809  21.106   4.366 -0.2312  0.0598  0.1747
    1DIPC   C4B 7152   3.938  21.021   3.993 -0.1181  0.1833  0.0012
    1DIPC   NC3 7153  17.100  18.430   8.033  0.0550  0.3590  0.1267
    1DIPC   PO4 7154  17.089  18.668   7.703  0.0326 -0.0790  0.2817
    1DIPC   GL1 7155  17.025  18.739   7.300 -0.2673 -0.1381  0.0303
    1DIPC   GL2 7156  17.387  18.880   7.118 -0.0867 -0.3366 -0.1929
    1DIPC   C1A 7157  17.214  18.477   6.974 -0.0500 -0.2667  0.3849
    1DIPC   D2A 7158  17.005  18.346   6.651 -0.0284 -0.0859  0.0347
    1DIPC   D3A 7159  17.468  18.343   6.575 -0.1986  0.2010 -0.2811
    1DIPC   C4A 7160  17.720  18.553   6.870  0.1026  0.0721  0.0085
    1DIPC   C1B 7161  17.076  19.274   7.083 -0.1048  0.0236 -0.0999
    1DIPC   D2B 7162  16.978  19.483   6.768 -0.0590  0.0454  0.3809
    1DIPC   D3B 7163  16.721  19.237   6.681 -0.1181  0.2985 -0.2153
    1DIPC   C4B 7164  16.796  18.780   6.830  0.0154  0.1465 -0.2394
    1DIPC   NC3 7165  20.574   2.076   6.915  0.2149 -0.3049  0.0548
    1DIPC   PO4 7166  20.487   2.530   6.749 -0.0171 -0.2941 -0.0453
    1DIPC   GL1 7167  20.430   2.432   6.263 -0.0493  0.1444  0.1089
    1DIPC   GL2 7168  20.156   2.373   6.017  0.0065 -0.1045 -0.1273
    1DIPC   C1A 7169  20.651   2.567   5.830 -0.0936 -0.1478 -0.1452
    1DIPC   D2A 7170  20.600   2.584   5.328  0.0219  0.2504  0.2803
    1DIPC   D3A 7171  20.486   2.439   4.922 -0.0369  0.0569  0.0026
    1DIPC   C4A 7172  20.595   2.159   4.743 -0.0535 -0.1297 -0.0554
    1DIPC   C1B 7173  20.057   2.207   5.635  0.0932 -0.1055 -0.0495
    1DIPC   D2B 7174  20.113   2.277   5.276  0.2972  0.1655 -0.0778
    1DIPC   D3B 7175  20.112   2.082   4.948  0.1409  0.2547  0.0699
    1DIPC   C4B 7176  20.349   1.759   4.910 -0.0860  0.1970  0.0654
    1DIPC   NC3 7177   6.823   3.196   6.658  0.1852 -0.2241 -0.1254
    1DIPC   PO4 7178   6.919   3.620   6.815 -0.1210 -0.1349 -0.2529
    1DIPC   GL1 7179   6.717   3.673   6.395 -0.3882  0.0155 -0.1455
    1DIPC   GL2 7180   6.524   3.451   6.336 -0.1124 -0.1717  0.3025
    1DIPC   C1A 7181   6.710   3.811   5.970  0.0916 -0.2055 -0.0505
    1DIPC   D2A 7182   6.465   3.801   5.588  0.0705 -0.0514  0.0697
    1DIPC   D3A 7183   6.704   4.036   5.212  0.2009 -0.0231 -0.2429
    1DIPC   C4A 7184   7.168   4.023   5.333  0.0608 -0.0396 -0.0083
    1DIPC   C1B 7185   6.335   3.571   6.032  0.0549  0.0885 -0.0070
    1DIPC   D2B 7186   5.977   3.710   5.743  0.1674  0.2163  0.0555
    1DIPC   D3B 7187   6.038   3.829   5.307  0.1688  0.1044 -0.0621
    1DIPC   C4B 7188   6.367   3.757   5.074 -0.1914 -0.0242  0.1379
    1DIPC   NC3 7189  25.419  17.938   6.671 -0.0564 -0.2121 -0.0419
    1DIPC   PO4 7190  25.546  17.838   6.301 -0.1809 -0.2134  0.1325
    1DIPC   GL1 7191  25.281  17.726   5.984 -0.2805 -0.2020 -0.2915
    1DIPC   GL2 7192  25.347  17.404   5.949 -0.1529 -0.0053  0.2019
    1DIPC   C1A 7193  25.073  17.767   5.584  0.1534 -0.2116 -0.0843
    1DIPC   D2A 7194  24.972  17.768   5.138  0.3332 -0.0488 -0.0488
    1DIPC   D3A 7195  25.018  18.116   4.829 -0.4659 -0.2600  0.3537
    1DIPC   C4A 7196  25.189  17.999   4.432 -0.2920 -0.0534 -0.2749
    1DIPC   C1B 7197  24.992  17.257   5.657  0.3382 -0.0616 -0.1392
    1DIPC   D2B 7198  24.660  17.512   5.413 -0.1442  0.0487  0.0074
    1DIPC   D3B 7199  24.763  17.151   5.168 -0.0214  0.2239  0.0992
    1DIPC   C4B 7200  24.504  16.951   4.801 -0.0655 -0.1640 -0.2231
    1DIPC   NC3 7201   1.069   4.547   5.993 -0.0402  0.0237  0.2181
    1DIPC   PO4 7202   1.286   4.226   5.857 -0.1736 -0.1818 -0.1192
    1DIPC   GL1 7203   1.231   4.031   5.457 -0.0093 -0.0362  0.4007
    1DIPC   GL2 7204   0.855   3.843   5.305 -0.2197 -0.0479  0.3712
    1DIPC   C1A 7205   1.398   4.185   5.191  0.0055 -0.2031 -0.0195
    1DIPC   D2A 7206   1.614   4.101   4.792 -0.4014 -0.0118 -0.1157
    1DIPC   D3A 7207   1.259   4.398   4.567  0.0319 -0.0361 -0.2790
    1DIPC   C4A 7208   1.403   4.806   4.327  0.3185  0.0763 -0.2321
    1DIPC   C1B 7209   0.787   3.550   4.937 -0.0619  0.0162 -0.2118
    1DIPC   D2B 7210   0.585   3.288   4.675  0.2558 -0.2910 -0.2049
    1DIPC   D3B 7211   0.355   2.895   4.680  0.0223  0.1123 -0.1178
    1DIPC   C4B 7212   0.431   2.451   4.449  0.0367 -0.1103 -0.0618
    1DIPC   NC3 7213   5.713  22.041   6.227 -0.0956 -0.1819  0.2636
    1DIPC   PO4 7214   6.174  21.844   6.322 -0.4344  0.2254 -0.3527
    1DIPC   GL1 7215   6.236  21.943   5.816 -0.0538 -0.1458  0.0818
    1DIPC   GL2 7216   6.535  22.142   5.648  0.0110  0.1220  0.2935
    1DIPC   C1A 7217   6.111  22.032   5.418  0.0122  0.5601  0.0692
    1DIPC   D2A 7218   5.978  22.069   4.961  0.0680  0.4191  0.3979
    1DIPC   D3A 7219   6.205  22.235   4.707  0.0230  0.3205 -0.1932
    1DIPC   C4A 7220   6.503  21.919   4.703 -0.2976 -0.1785  0.1259
    1DIPC   C1B 7221   6.470  22.168   5.135 -0.0215 -0.4423 -0.2267
    1DIPC   D2B 7222   6.647  22.440   4.773  0.3085 -0.4121 -0.1491
    1DIPC   D3B 7223   6.410  22.801   4.588  0.0750 -0.2256  0.1528
    1DIPC   C4B 7224   6.490  23.239   4.467  0.1887 -0.0975  0.2966
    1DIPC   NC3 7225  21.163   3.152   6.442 -0.1592 -0.0341 -0.0187
    1DIPC   PO4 7226  21.577   3.327   6.225 -0.1061 -0.2305 -0.3513
    1DIPC   GL1 7227  21.382   3.123   5.969 -0.0556 -0.0913  0.0632
    1DIPC   GL2 7228  21.000   3.113   5.937  0.0139  0.1285 -0.0959
    1DIPC   C1A 7229  21.350   3.273   5.548  0.0587 -0.0353  0.2905
    1DIPC   D2A 7230  21.252   3.085   5.073 -0.0821  0.0224 -0.0590
    1DIPC   D3A 7231  21.047   3.156   4.689 -0.0508 -0.0249  0.1027
    1DIPC   C4A 7232  20.673   3.418   4.804 -0.1843 -0.1474  0.1049
    1DIPC   C1B 7233  20.967   2.858   5.526  0.1639  0.0369  0.0805
    1DIPC   D2B 7234  21.269   2.565   5.283  0.1404 -0.0596 -0.1505
    1DIPC   D3B 7235  21.512   2.699   4.916 -0.0261 -0.0174  0.0988
    1DIPC   C4B 7236  21.462   2.439   4.672  0.0099 -0.0418  0.1581
    1DIPC   NC3 7237  28.642   4.289   5.976  0.0732  0.1913  0.0111
    1DIPC   PO4 7238  28.335   3.988   6.175  0.0687 -0.0822 -0.1038
    1DIPC   GL1 7239  28.192   4.109   5.769 -0.0769 -0.1476  0.1362
    1DIPC   GL2 7240  28.467   4.077   5.483 -0.1290 -0.2430 -0.2940
    1DIPC   C1A 7241  27.893   4.146   5.318  0.4644  0.1752  0.0564
    1DIPC   D2A 7242  27.645   4.113   4.853  0.0326 -0.2613  0.2006
    1DIPC   D3A 7243  27.918   4.083   4.494  0.0746 -0.1735 -0.1664
    1DIPC   C4A 7244  28.082   4.504   4.330 -0.0082 -0.0240  0.0284
    1DIPC   C1B 7245  28.444   3.780   5.164  0.0284  0.1205 -0.1513
    1DIPC   D2B 7246  28.075   3.802   4.865  0.0083 -0.1938  0.0144
    1DIPC   D3B 7247  27.686   3.572   4.854  0.1316 -0.2728 -0.0740
    1DIPC   C4B 7248  27.352   3.537   5.184  0.2933  0.1607 -0.1633
    1DIPC   NC3 7249  28.614  12.170   6.545  0.1412 -0.2570  0.3441
    1DIPC   PO4 7250  28.307  11.853   6.535  0.2151 -0.0188  0.0845
    1DIPC   GL1 7251  28.414  11.939   6.106  0.2206 -0.0905  0.1983
    1DIPC   GL2 7252  28.107  12.028   5.855 -0.1255 -0.2473 -0.1968
    1DIPC   C1A 7253  28.566  11.853   5.718  0.1778  0.2811 -0.0135
    1DIPC   D2A 7254  28.778  11.811   5.285 -0.2636 -0.0367  0.0899
    1DIPC   D3A 7255  28.525  11.569   5.364  0.2162  0.2048 -0.0298
    1DIPC   C4A 7256  28.209  11.427   5.733 -0.1508  0.3976 -0.1841
    1DIPC   C1B 7257  27.866  12.065   5.483  0.0331 -0.2669 -0.3459
    1DIPC   D2B 7258  27.920  12.175   5.047  0.0214 -0.3659  0.0167
    1DIPC   D3B 7259  27.534  12.036   5.009 -0.0365  0.0404  0.2063
    1DIPC   C4B 7260  27.578  11.651   5.314 -0.0195 -0.1238 -0.1294
    1DIPC   NC3 7261   8.494  28.933   7.480  0.0333  0.1941 -0.1942
    1DIPC   PO4 7262   8.933  28.914   7.253 -0.0212 -0.3048  0.0147
    1DIPC   GL1 7263   8.815  28.867   6.819 -0.0988  0.0019  0.3206
    1DIPC   GL2 7264   8.937  28.680   6.671 -0.2307 -0.0325 -0.2213
    1DIPC   C1A 7265   8.604  29.145   6.614 -0.2269 -0.0250 -0.1918
    1DIPC   D2A 7266   8.249  29.195   6.437 -0.2888 -0.2844  0.0187
    1DIPC   D3A 7267   7.999  29.196   6.041 -0.1080 -0.0301 -0.1679
    1DIPC   C4A 7268   7.950  29.170   5.676 -0.1662  0.0138  0.2972
    1DIPC   C1B 7269   9.038  28.783   6.296  0.0813 -0.0331  0.0396
    1DIPC   D2B 7270   9.210  29.140   6.023  0.1004 -0.1822  0.0182
    1DIPC   D3B 7271   8.774  29.207   6.028  0.2671  0.0189 -0.0203
    1DIPC   C4B 7272   8.490  29.359   5.746 -0.0839  0.0929 -0.2266
    1DIPC   NC3 7273  20.859  27.980   6.746 -0.0101 -0.2794  0.0678
    1DIPC   PO4 7274  21.077  27.630   6.729  0.1430  0.0836 -0.2284
    1DIPC   GL1 7275  21.283  27.818   6.491  0.1325  0.0970 -0.3016
    1DIPC   GL2 7276  21.472  27.607   6.239 -0.0165 -0.3249  0.0341
    1DIPC   C1A 7277  21.438  28.086   6.139  0.0998 -0.3249  0.0366
    1DIPC   D2A 7278  21.558  28.101   5.747 -0.0634  0.2370 -0.0284
    1DIPC   D3A 7279  21.375  28.286   5.521  0.0736  0.0279  0.0421
    1DIPC   C4A 7280  21.691  28.600   5.472  0.0961  0.1640 -0.1583
    1DIPC   C1B 7281  21.249  27.720   5.872 -0.0261  0.1942 -0.0432
    1DIPC   D2B 7282  20.972  27.947   5.679  0.0239  0.2681  0.0645
    1DIPC   D3B 7283  21.268  27.821   5.365 -0.0561  0.0832 -0.1313
    1DIPC   C4B 7284  21.051  27.532   5.112 -0.2006  0.2212  0.1347
    1DIPC   NC3 7285  11.198  19.970   7.453  0.1641  0.5488 -0.0823
    1DIPC   PO4 7286  11.085  20.043   6.954  0.1592  0.0121 -0.0561
    1DIPC   GL1 7287  11.448  20.076   6.608 -0.0883 -0.1369  0.0205
    1DIPC   GL2 7288  11.778  19.938   6.471 -0.0551  0.4061 -0.2785
    1DIPC   C1A 7289  11.268  20.211   6.182 -0.1623  0.1053 -0.0976
    1DIPC   D2A 7290  11.005  20.165   5.809  0.0551  0.0371  0.0241
    1DIPC   D3A 7291  11.160  19.735   6.015 -0.1753 -0.0259  0.0647
    1DIPC   C4A 7292  10.843  19.451   6.203  0.0408  0.1328  0.1490
    1DIPC   C1B 7293  11.604  19.596   6.162 -0.0846 -0.2865  0.3309
    1DIPC   D2B 7294  11.508  19.446   5.784 -0.1033 -0.0205 -0.0602
    1DIPC   D3B 7295  11.122  19.331   5.637  0.2102  0.0916  0.1331
    1DIPC   C4B 7296  11.052  19.648   5.431 -0.1244 -0.1963 -0.0306
    1DIPC   NC3 7297  11.542  23.381   7.022 -0.0924  0.2662  0.3233
    1DIPC   PO4 7298  11.342  23.587   6.507  0.0678  0.0185  0.2161
    1DIPC   GL1 7299  11.177  23.558   6.125  0.4948 -0.1051 -0.4859
    1DIPC   GL2 7300  10.974  23.733   5.971  0.0981  0.0645 -0.0290
    1DIPC   C1A 7301  11.227  23.258   5.828  0.0055  0.1851  0.0738
    1DIPC   D2A 7302  11.109  23.116   5.491  0.0756 -0.1587  0.2296
    1DIPC   D3A 7303  11.299  22.756   5.284 -0.0693  0.0938 -0.0052
    1DIPC   C4A 7304  11.188  22.277   5.119 -0.2903 -0.0290 -0.1791
    1DIPC   C1B 7305  10.778  23.544   5.514 -0.2625 -0.3311  0.2018
    1DIPC   D2B 7306  10.858  23.318   5.092 -0.0036  0.2065  0.1634
    1DIPC   D3B 7307  11.212  23.582   5.074 -0.1878  0.3062  0.1722
    1DIPC   C4B 7308  11.298  23.637   5.485 -0.0132  0.0267  0.0547
    1DIPC   NC3 7309  25.774  27.844   6.362  0.1838 -0.2951 -0.0421
    1DIPC   PO4 7310  25.323  27.786   6.243 -0.0820  0.2316  0.3199
    1DIPC   GL1 7311  25.348  28.026   5.944  0.2052 -0.1660  0.1794
    1DIPC   GL2 7312  25.667  28.125   5.918 -0.3046 -0.3993 -0.1587
    1DIPC   C1A 7313  25.242  28.119   5.547  0.1207  0.0570  0.0480
    1DIPC   D2A 7314  25.150  28.154   5.104  0.3510 -0.0093  0.3910
    1DIPC   D3A 7315  24.738  28.198   4.700  0.2353 -0.3458  0.2370
    1DIPC   C4A 7316  24.344  28.418   4.531  0.5312  0.1055 -0.1060
    1DIPC   C1B 7317  25.620  28.370   5.585  0.0898 -0.1350  0.1347
    1DIPC   D2B 7318  25.410  28.572   5.184 -0.0401 -0.4329 -0.1652
    1DIPC   D3B 7319  25.469  29.027   5.007 -0.2001 -0.3906  0.0398
    1DIPC   C4B 7320  25.824  29.244   4.935 -0.1717  0.1568  0.1943
    1DIPC   NC3 7321   6.481   8.460   6.490  0.0244  0.0302 -0.0127
    1DIPC   PO4 7322   6.684   8.885   6.531 -0.0287 -0.1983 -0.3178
    1DIPC   GL1 7323   6.828   8.873   6.075  0.0280  0.0099  0.1105
    1DIPC   GL2 7324   7.085   9.150   5.960  0.1480 -0.2683 -0.2648
    1DIPC   C1A 7325   6.885   8.911   5.604  0.5211  0.0207 -0.1958
    1DIPC   D2A 7326   6.873   9.008   5.208  0.0665  0.2129 -0.0840
    1DIPC   D3A 7327   7.111   9.344   5.142  0.0038 -0.0896  0.1045
    1DIPC   C4A 7328   7.216   9.719   5.432  0.1655  0.0061 -0.2154
    1DIPC   C1B 7329   7.293   9.215   5.613  0.1177  0.0107 -0.3409
    1DIPC   D2B 7330   7.589   9.333   5.436  0.4573  0.0420 -0.1134
    1DIPC   D3B 7331   7.443   8.947   5.158 -0.0548  0.2043  0.1874
    1DIPC   C4B 7332   7.667   8.502   5.157  0.3670 -0.2874  0.4210
    1DIPC   NC3 7333  19.198   1.199   6.970  0.0381  0.4124 -0.0793
    1DIPC   PO4 7334  19.519   1.373   6.815  0.1144 -0.1608  0.0854
    1DIPC   GL1 7335  19.392   1.299   6.381 -0.0483  0.3808 -0.2309
    1DIPC   GL2 7336  19.016   1.211   6.270 -0.1545 -0.0300 -0.0741
    1DIPC   C1A 7337  19.456   0.919   5.966 -0.4915  0.0771 -0.2718
    1DIPC   D2A 7338  19.757   0.533   5.825 -0.0959  0.1273 -0.1700
    1DIPC   D3A 7339  19.614   0.329   5.523  0.1589 -0.0863  0.2132
    1DIPC   C4A 7340  19.271   0.236   5.546 -0.2894 -0.1316 -0.0397
    1DIPC   C1B 7341  18.937   1.135   5.884  0.0009  0.0483  0.0264
    1DIPC   D2B 7342  18.537   0.858   5.665 -0.0641 -0.0279  0.4478
    1DIPC   D3B 7343  18.551   1.147   5.366  0.0382  0.0582 -0.0680
    1DIPC   C4B 7344  18.351   1.124   5.130 -0.0678  0.1028  0.1255
    1DIPC   NC3 7345   6.073  26.415   7.126 -0.1305 -0.1360 -0.1925
    1DIPC   PO4 7346   6.380  26.156   6.738  0.0459 -0.2232  0.0172
    1DIPC   GL1 7347   6.796  26.239   6.461 -0.4691  0.1099 -0.0644
    1DIPC   GL2 7348   6.805  26.498   6.468  0.1644 -0.4634  0.0283
    1DIPC   C1A 7349   7.014  26.196   6.044 -0.3856 -0.3424 -0.1120
    1DIPC   D2A 7350   7.024  26.220   5.586 -0.2562 -0.1435 -0.2624
    1DIPC   D3A 7351   6.575  26.152   5.638  0.0485  0.0678  0.1958
    1DIPC   C4A 7352   6.212  25.877   5.546 -0.1462  0.1895  0.4260
    1DIPC   C1B 7353   6.550  26.406   6.063 -0.1249  0.2675  0.2110
    1DIPC   D2B 7354   6.209  26.514   5.667  0.2195  0.0925  0.1275
    1DIPC   D3B 7355   5.885  26.255   5.429 -0.1630  0.2433 -0.0869
    1DIPC   C4B 7356   5.499  26.188   5.344  0.3964  0.0468  0.1562
    1DIPC   NC3 7357   7.892   7.229   6.958  0.0810  0.3288 -0.1325
    1DIPC   PO4 7358   7.984   7.693   6.776 -0.1715 -0.1578 -0.3132
    1DIPC   GL1 7359   8.040   7.944   6.356  0.1414  0.1108 -0.1161
    1DIPC   GL2 7360   8.076   8.233   6.367 -0.0908  0.0351 -0.1399
    1DIPC   C1A 7361   8.103   7.998   5.846 -0.0066 -0.3967  0.0587
    1DIPC   D2A 7362   8.174   8.427   5.655 -0.4756 -0.1197  0.0964
    1DIPC   D3A 7363   8.430   8.629   5.273  0.2611 -0.2099 -0.2490
    1DIPC   C4A 7364   8.101   8.409   5.018  0.1045  0.1595  0.0163
    1DIPC   C1B 7365   7.793   8.426   6.070  0.0101  0.3471 -0.0163
    1DIPC   D2B 7366   7.671   8.743   5.830 -0.0662  0.0722  0.1768
    1DIPC   D3B 7367   7.268   8.639   5.615 -0.0728  0.1154  0.0533
    1DIPC   C4B 7368   6.875   8.418   5.796  0.1857  0.2901 -0.0778
    1DIPC   NC3 7369   4.857  17.359   5.854 -0.2573  0.1754  0.0748
    1DIPC   PO4 7370   5.178  17.105   5.630  0.1726 -0.2238 -0.2150
    1DIPC   GL1 7371   5.349  17.057   5.313 -0.0558  0.4423  0.3273
    1DIPC   GL2 7372   5.277  16.732   5.129  0.0192 -0.1282 -0.0315
    1DIPC   C1A 7373   5.215  17.101   4.811  0.1752  0.0586 -0.1774
    1DIPC   D2A 7374   4.980  17.275   4.613  0.0159 -0.0708  0.2680
    1DIPC   D3A 7375   5.197  17.398   4.225 -0.1758  0.1369  0.2282
    1DIPC   C4A 7376   5.165  17.788   4.163  0.0036  0.0412  0.0775
    1DIPC   C1B 7377   5.220  16.487   4.765  0.0294 -0.2453 -0.0001
    1DIPC   D2B 7378   5.029  16.428   4.426  0.0562  0.0269  0.2682
    1DIPC   D3B 7379   4.818  16.228   4.810  0.0789  0.0562 -0.0110
    1DIPC   C4B 7380   4.581  15.943   4.892  0.1964  0.0420  0.1542
    1DIPC   NC3 7381  27.451   8.715   6.034 -0.0872  0.1772  0.0652
    1DIPC   PO4 7382  27.718   9.023   6.189  0.3619 -0.0991  0.2000
    1DIPC   GL1 7383  27.611   9.181   5.736  0.0645 -0.1579 -0.3235
    1DIPC   GL2 7384  27.852   9.059   5.663 -0.1590 -0.0289  0.1692
    1DIPC   C1A 7385  27.734   9.413   5.302 -0.3659  0.0594 -0.0675
    1DIPC   D2A 7386  27.468   9.727   5.017  0.0463 -0.0181 -0.0359
    1DIPC   D3A 7387  27.080   9.572   4.773  0.1508  0.1589  0.1359
    1DIPC   C4A 7388  26.768   9.950   4.671 -0.2944 -0.0461  0.1318
    1DIPC   C1B 7389  27.993   8.948   5.166 -0.0188  0.0750  0.0958
    1DIPC   D2B 7390  28.117   8.552   4.941 -0.1435 -0.1815 -0.1628
    1DIPC   D3B 7391  28.291   9.036   4.774 -0.0999  0.1391  0.0434
    1DIPC   C4B 7392  28.320   9.169   4.263  0.0362 -0.2713  0.1936
    1DIPC   NC3 7393  17.288  23.286   6.641 -0.3713 -0.2794  0.0681
    1DIPC   PO4 7394  17.392  23.658   6.835  0.1063 -0.5392 -0.0886
    1DIPC   GL1 7395  17.579  23.855   6.432  0.0036 -0.1751  0.2678
    1DIPC   GL2 7396  17.492  23.587   6.196 -0.0677 -0.0643 -0.0040
    1DIPC   C1A 7397  17.925  24.000   6.201 -0.1376 -0.2639 -0.0569
    1DIPC   D2A 7398  18.290  23.713   6.060 -0.2955  0.0020  0.0386
    1DIPC   D3A 7399  18.330  24.222   6.026 -0.0338  0.1629  0.0044
    1DIPC   C4A 7400  17.868  24.435   5.965 -0.2573 -0.1642 -0.1569
    1DIPC   C1B 7401  17.860  23.629   5.805  0.0115 -0.3270 -0.0827
    1DIPC   D2B 7402  17.976  23.993   5.645  0.2025  0.1688 -0.0892
    1DIPC   D3B 7403  17.722  24.238   5.452 -0.1569 -0.0270  0.2310
    1DIPC   C4B 7404  17.751  24.519   5.096 -0.3682 -0.1081  0.3341
    1DIPC   NC3 7405  19.688   2.151   6.498  0.0090  0.3509 -0.0416
    1DIPC   PO4 7406  19.232   2.277   6.430  0.0646  0.3081  0.1858
    1DIPC   GL1 7407  19.033   2.009   6.297 -0.0177  0.2935  0.2046
    1DIPC   GL2 7408  19.059   1.983   5.983 -0.0892 -0.3470  0.2956
    1DIPC   C1A 7409  18.726   1.654   6.167  0.2135  0.0962  0.0838
    1DIPC   D2A 7410  18.391   1.589   5.966  0.0884 -0.1976  0.0267
    1DIPC   D3A 7411  18.450   1.155   6.019 -0.0622 -0.1910 -0.0269
    1DIPC   C4A 7412  18.514   0.936   6.350 -0.0407 -0.1004  0.2159
    1DIPC   C1B 7413  19.247   1.935   5.519  0.1863  0.4029 -0.1748
    1DIPC   D2B 7414  19.284   1.738   5.166 -0.1416  0.0518 -0.0397
    1DIPC   D3B 7415  19.497   1.321   5.046  0.2405 -0.4119  0.1803
    1DIPC   C4B 7416  19.958   1.354   4.902 -0.0675  0.4415 -0.1037
    1DIPC   NC3 7417   2.380  17.722   5.821 -0.0314 -0.0328  0.1908
    1DIPC   PO4 7418   2.333  17.330   5.964  0.0141 -0.2567  0.1764
    1DIPC   GL1 7419   2.482  17.217   5.577  0.0795 -0.1636 -0.0128
    1DIPC   GL2 7420   2.463  16.883   5.492  0.0927  0.2067  0.0840
    1DIPC   C1A 7421   2.516  17.516   5.166 -0.0524 -0.3043  0.1428
    1DIPC   D2A 7422   2.521  17.507   4.684 -0.0152  0.1046  0.1785
    1DIPC   D3A 7423   2.677  17.115   4.542 -0.0999 -0.0383 -0.1426
    1DIPC   C4A 7424   2.393  16.761   4.420 -0.0836 -0.1807  0.1391
    1DIPC   C1B 7425   2.018  16.957   5.467  0.0876 -0.0844  0.1201
    1DIPC   D2B 7426   1.581  17.230   5.590  0.1840 -0.0515 -0.2276
    1DIPC   D3B 7427   1.257  17.098   5.193 -0.0061 -0.0685  0.2113
    1DIPC   C4B 7428   1.425  16.921   4.802 -0.0159  0.2622  0.3756
    1DIPC   NC3 7429  26.883  11.812   6.376  0.0642 -0.4402 -0.0257
    1DIPC   PO4 7430  26.917  11.443   6.072  0.0374  0.0685 -0.0909
    1DIPC   GL1 7431  27.115  11.413   5.674 -0.1444  0.1966 -0.0287
    1DIPC   GL2 7432  26.771  11.338   5.583 -0.2079 -0.0667  0.1078
    1DIPC   C1A 7433  27.121  11.474   5.243 -0.2400 -0.4825  0.1203
    1DIPC   D2A 7434  26.784  11.493   5.048  0.2565 -0.0173 -0.0360
    1DIPC   D3A 7435  26.510  11.690   5.297  0.2506  0.0514  0.0623
    1DIPC   C4A 7436  26.605  12.054   5.336  0.0740 -0.1131  0.1461
    1DIPC   C1B 7437  26.776  10.943   5.660 -0.2436  0.2321  0.1895
    1DIPC   D2B 7438  27.077  10.777   5.943  0.1178  0.1056  0.1156
    1DIPC   D3B 7439  27.264  10.906   5.600  0.2048 -0.2112  0.0848
    1DIPC   C4B 7440  27.038  11.019   5.268 -0.0649 -0.1059 -0.0168
    1DIPC   NC3 7441   2.250  27.582   6.914  0.2879 -0.1018  0.1061
    1DIPC   PO4 7442   2.054  27.737   6.491 -0.4711  0.1390 -0.1649
    1DIPC   GL1 7443   2.229  27.720   6.165 -0.1851 -0.1022  0.0612
    1DIPC   GL2 7444   2.492  28.052   6.278  0.2531 -0.0074 -0.0471
    1DIPC   C1A 7445   2.525  27.464   6.017 -0.1890  0.0699  0.0410
    1DIPC   D2A 7446   2.862  27.382   5.760 -0.2338  0.0524  0.0017
    1DIPC   D3A 7447   2.886  27.320   5.285  0.1041 -0.1268 -0.1788
    1DIPC   C4A 7448   2.882  26.924   5.079 -0.1430  0.0431 -0.2068
    1DIPC   C1B 7449   2.534  28.046   5.814 -0.1079 -0.0793  0.0047
    1DIPC   D2B 7450   2.577  27.735   5.582 -0.1505  0.0398  0.0508
    1DIPC   D3B 7451   2.389  27.577   5.240 -0.4527 -0.1220 -0.0814
    1DIPC   C4B 7452   2.457  27.180   5.018  0.2339 -0.0325 -0.0860
    1DIPC   NC3 7453   1.653  10.706   6.413  0.1911  0.2091 -0.1580
    1DIPC   PO4 7454   2.022  10.872   6.318 -0.0574  0.0100 -0.1636
    1DIPC   GL1 7455   1.856  10.946   5.880 -0.2515  0.0961 -0.1025
    1DIPC   GL2 7456   1.753  11.235   5.823 -0.0003  0.1495  0.2652
    1DIPC   C1A 7457   1.921  10.905   5.493  0.1796  0.1309  0.1227
    1DIPC   D2A 7458   2.262  11.180   5.157  0.2517  0.1167  0.0763
    1DIPC   D3A 7459   2.235  11.174   4.639 -0.2395  0.3155  0.0609
    1DIPC   C4A 7460   2.516  11.358   4.319  0.1970 -0.0410 -0.1199
    1DIPC   C1B 7461   1.824  11.427   5.397 -0.0680  0.0946  0.4307
    1DIPC   D2B 7462   1.812  11.351   4.957 -0.1743 -0.1102 -0.0584
    1DIPC   D3B 7463   1.645  11.037   5.128 -0.1884 -0.1220  0.0137
    1DIPC   C4B 7464   1.266  10.640   4.936 -0.1000  0.0352 -0.2107
    1DIPC   NC3 7465   4.947  16.500   6.353  0.0571 -0.0167 -0.0873
    1DIPC   PO4 7466   5.373  16.434   6.184 -0.0957 -0.1988 -0.1099
    1DIPC   GL1 7467   5.299  16.188   5.787 -0.1971 -0.1218 -0.0129
    1DIPC   GL2 7468   5.246  16.320   5.438  0.0512 -0.1993 -0.1545
    1DIPC   C1A 7469   5.351  15.812   5.573 -0.0788 -0.1826  0.2961
    1DIPC   D2A 7470   5.479  15.474   5.286  0.2359  0.0100 -0.0109
    1DIPC   D3A 7471   5.381  15.461   4.896  0.2458 -0.1910  0.0807
    1DIPC   C4A 7472   5.166  15.309   4.643  0.2996  0.0738  0.3261
    1DIPC   C1B 7473   5.180  16.078   5.106 -0.1266  0.0577  0.2352
    1DIPC   D2B 7474   5.346  15.937   4.775 -0.1838  0.1010  0.4141
    1DIPC   D3B 7475   4.978  15.775   4.661 -0.0393  0.3460  0.0195
    1DIPC   C4B 7476   4.787  16.006   4.305 -0.2406  0.0193  0.1404
    1DIPC   NC3 7477   9.658   7.123   6.770 -0.1234 -0.2842 -0.0477
    1DIPC   PO4 7478   9.488   6.678   6.944 -0.0695 -0.0171 -0.1012
    1DIPC   GL1 7479   9.542   6.711   6.527  0.3512 -0.0216 -0.1247
    1DIPC   GL2 7480   9.297   6.962   6.432 -0.0241 -0.2538 -0.2557
    1DIPC   C1A 7481   9.479   6.542   6.083  0.2304  0.1372 -0.0636
    1DIPC   D2A 7482   9.567   6.402   5.762 -0.0972 -0.1667  0.2958
    1DIPC   D3A 7483   9.695   6.789   5.733  0.0113  0.1747 -0.2751
    1DIPC   C4A 7484   9.996   7.039   5.415 -0.0377 -0.0757  0.0378
    1DIPC   C1B 7485   9.117   6.932   5.976  0.0897 -0.1986 -0.4371
    1DIPC   D2B 7486   8.885   7.230   5.608  0.0539 -0.1377 -0.2747
    1DIPC   D3B 7487   8.989   7.299   5.214  0.2021 -0.1635  0.2501
    1DIPC   C4B 7488   9.039   6.868   4.952  0.0052 -0.2719 -0.2304
    1DIPC   NC3 7489  28.892  27.340   6.478 -0.1357  0.0431  0.0686
    1DIPC   PO4 7490  28.757  27.834   6.525 -0.2681 -0.1950 -0.5901
    1DIPC   GL1 7491  28.703  27.634   6.102  0.1270 -0.4842  0.0507
    1DIPC   GL2 7492  28.918  27.341   5.978 -0.4413 -0.0546 -0.0592
    1DIPC   C1A 7493  28.787  27.733   5.674  0.1937  0.0503 -0.2499
    1DIPC   D2A 7494  29.039  28.063   5.333  0.1651  0.2108 -0.1390
    1DIPC   D3A 7495  28.895  27.873   4.852  0.4269 -0.1839 -0.3333
    1DIPC   C4A 7496  29.244  27.695   4.649 -0.0620  0.0690  0.2180
    1DIPC   C1B 7497  28.959  27.233   5.546 -0.3151  0.1370 -0.1392
    1DIPC   D2B 7498  29.038  27.511   5.261 -0.0521  0.2001  0.2898
    1DIPC   D3B 7499  28.641  27.611   5.211  0.0049  0.0294  0.0950
    1DIPC   C4B 7500  28.312  27.389   4.823  0.1113 -0.2038 -0.0712
    1DIPC   NC3 7501  16.402  26.810   7.227 -0.0912  0.3239  0.2510
    1DIPC   PO4 7502  16.695  26.560   7.158 -0.1149  0.4362  0.0698
    1DIPC   GL1 7503  16.790  26.400   6.808 -0.2201 -0.1557  0.2255
    1DIPC   GL2 7504  17.100  26.302   6.764  0.0193 -0.0832 -0.0044
    1DIPC   C1A 7505  16.903  26.589   6.340 -0.3151 -0.0507  0.0888
    1DIPC   D2A 7506  17.049  26.424   5.890 -0.1408  0.1755  0.0176
    1DIPC   D3A 7507  17.176  26.107   5.554 -0.0114 -0.2196 -0.0136
    1DIPC   C4A 7508  17.000  25.774   5.251  0.0789 -0.1993  0.1021
    1DIPC   C1B 7509  17.334  26.326   6.336 -0.2382  0.1860  0.0517
    1DIPC   D2B 7510  17.497  26.121   5.956  0.0220 -0.0916 -0.1071
    1DIPC   D3B 7511  17.554  26.469   5.839 -0.0887 -0.2034 -0.0209
    1DIPC   C4B 7512  17.420  26.752   6.039  0.1661  0.0267  0.0063
    1DIPC   NC3 7513  22.584   8.263   6.491  0.0575  0.2070  0.3598
    1DIPC   PO4 7514  22.419   8.583   6.854  0.1332  0.0896  0.3661
    1DIPC   GL1 7515  22.120   8.650   6.436  0.1057 -0.1759  0.0031
    1DIPC   GL2 7516  21.815   8.648   6.402  0.0621  0.2796  0.0652
    1DIPC   C1A 7517  22.116   8.932   6.067  0.2081  0.1385  0.1438
    1DIPC   D2A 7518  22.313   9.123   5.660  0.2368 -0.1020 -0.1005
    1DIPC   D3A 7519  22.308   8.726   5.672  0.0944  0.1345  0.1244
    1DIPC   C4A 7520  22.417   8.348   5.467 -0.1662  0.0114 -0.2999
    1DIPC   C1B 7521  21.859   8.478   6.030  0.1093  0.0358  0.3260
    1DIPC   D2B 7522  21.841   8.175   5.651  0.1010  0.0103  0.0825
    1DIPC   D3B 7523  21.856   8.139   5.270 -0.2572 -0.1567 -0.3399
    1DIPC   C4B 7524  21.768   8.130   4.823 -0.2132 -0.3970 -0.0182
    1DIPC   NC3 7525  26.553  25.729   6.976  0.1036 -0.0828  0.0956
    1DIPC   PO4 7526  26.511  26.147   6.656 -0.0631 -0.0918 -0.3841
    1DIPC   GL1 7527  26.257  26.179   6.296  0.0250  0.1087 -0.1513
    1DIPC   GL2 7528  26.514  26.368   6.126  0.0825 -0.0051  0.0675
    1DIPC   C1A 7529  26.068  26.243   5.915  0.0605  0.0665 -0.1195
    1DIPC   D2A 7530  26.132  26.277   5.423  0.0720 -0.1495  0.0473
    1DIPC   D3A 7531  26.267  26.376   5.063 -0.1433  0.1813 -0.0727
    1DIPC   C4A 7532  26.554  26.592   4.930  0.2260 -0.1736 -0.0412
    1DIPC   C1B 7533  26.673  26.248   5.788 -0.1086  0.1773  0.0350
    1DIPC   D2B 7534  26.558  26.580   5.426  0.2352 -0.1517 -0.1090
    1DIPC   D3B 7535  26.884  26.755   5.271 -0.0275  0.5089  0.0323
    1DIPC   C4B 7536  27.155  26.630   4.867 -0.2676  0.3243  0.1149
    1DIPC   NC3 7537  21.910  24.682   6.842 -0.1960 -0.3305 -0.0066
    1DIPC   PO4 7538  21.512  24.611   6.944  0.1144  0.1684 -0.0719
    1DIPC   GL1 7539  21.404  24.693   6.558 -0.3315  0.3450 -0.2243
    1DIPC   GL2 7540  21.315  25.031   6.449 -0.0746  0.0619  0.5661
    1DIPC   C1A 7541  21.468  24.656   6.112  0.1369  0.3705 -0.0848
    1DIPC   D2A 7542  21.242  24.594   5.814 -0.0615  0.0707 -0.2029
    1DIPC   D3A 7543  21.119  24.404   5.511  0.3097  0.0339  0.2515
    1DIPC   C4A 7544  20.814  24.095   5.687 -0.1990 -0.0681 -0.4553
    1DIPC   C1B 7545  21.490  25.123   5.953 -0.3058 -0.1102  0.0733
    1DIPC   D2B 7546  21.898  25.103   5.683  0.0107 -0.1322 -0.0127
    1DIPC   D3B 7547  21.596  25.152   5.326  0.1904  0.0974  0.2999
    1DIPC   C4B 7548  21.313  24.891   5.193 -0.0373 -0.0499 -0.1573
    1DIPC   NC3 7549  27.039   1.706   6.456  0.0241 -0.3067 -0.4451
    1DIPC   PO4 7550  26.562   1.874   6.326  0.0962  0.1090  0.0216
    1DIPC   GL1 7551  26.749   1.974   5.920  0.0603 -0.2347 -0.0535
    1DIPC   GL2 7552  26.852   2.187   5.805 -0.3780 -0.2359 -0.2276
    1DIPC   C1A 7553  26.960   1.752   5.522 -0.1837  0.1156  0.1313
    1DIPC   D2A 7554  27.037   1.687   5.093 -0.0035  0.1522 -0.2741
    1DIPC   D3A 7555  26.731   1.207   5.006  0.1856 -0.1886 -0.2234
    1DIPC   C4A 7556  26.733   1.065   4.702  0.1082 -0.2101  0.6771
    1DIPC   C1B 7557  27.333   2.125   5.651  0.1602 -0.1723 -0.0716
    1DIPC   D2B 7558  27.606   1.965   5.257 -0.2586 -0.0786  0.3162
    1DIPC   D3B 7559  27.525   1.544   5.118  0.0198 -0.0655  0.2812
    1DIPC   C4B 7560  27.731   1.291   5.270 -0.0575  0.2546 -0.1546
    1DIPC   NC3 7561   4.036   6.146   6.256 -0.1740 -0.0198 -0.0629
    1DIPC   PO4 7562   4.388   5.891   6.277  0.0419  0.0792  0.0879
    1DIPC   GL1 7563   4.420   5.660   5.901 -0.1354  0.4047 -0.0898
    1DIPC   GL2 7564   4.620   5.502   5.828 -0.0756 -0.1185  0.2845
    1DIPC   C1A 7565   4.125   5.373   5.533 -0.0803 -0.2224  0.3032
    1DIPC   D2A 7566   4.010   5.013   5.248 -0.0026 -0.1815 -0.1320
    1DIPC   D3A 7567   4.231   5.166   4.807  0.1597  0.2028 -0.0794
    1DIPC   C4A 7568   3.996   5.187   4.393 -0.1106  0.1338 -0.1245
    1DIPC   C1B 7569   4.968   5.399   5.562  0.5287  0.1006 -0.0604
    1DIPC   D2B 7570   5.264   5.496   5.391 -0.5666 -0.0807  0.3751
    1DIPC   D3B 7571   5.553   5.800   5.186  0.0593  0.0820 -0.0194
    1DIPC   C4B 7572   5.504   5.614   4.678  0.4238 -0.2156 -0.0639
    1DIPC   NC3 7573   6.218  13.492   6.407 -0.2361  0.0767 -0.1082
    1DIPC   PO4 7574   6.544  13.491   6.692 -0.0239 -0.0487  0.1450
    1DIPC   GL1 7575   6.690  13.260   6.330 -0.2529 -0.0125 -0.1002
    1DIPC   GL2 7576   7.013  13.351   6.162  0.1393  0.0439 -0.0323
    1DIPC   C1A 7577   6.621  13.123   5.901 -0.1644  0.1714 -0.1269
    1DIPC   D2A 7578   6.445  12.889   5.578  0.0170 -0.3710 -0.3561
    1DIPC   D3A 7579   6.373  12.848   5.137 -0.3050 -0.1785  0.2111
    1DIPC   C4A 7580   6.417  12.407   4.999  0.2011  0.2150  0.1675
    1DIPC   C1B 7581   7.078  13.272   5.756  0.1587 -0.1886  0.0356
    1DIPC   D2B 7582   6.769  13.401   5.436 -0.0662 -0.3260  0.0483
    1DIPC   D3B 7583   7.084  13.685   5.440  0.1939 -0.0651 -0.1980
    1DIPC   C4B 7584   7.137  13.892   5.825 -0.0652  0.1642  0.0109
    1DIPC   NC3 7585   0.963  25.560   6.865  0.0611  0.0300 -0.0735
    1DIPC   PO4 7586   0.573  25.508   6.731  0.1983 -0.1406  0.1033
    1DIPC   GL1 7587   0.525  25.197   6.327 -0.3150  0.0695  0.0300
    1DIPC   GL2 7588   0.439  25.345   6.132 -0.1883  0.0881 -0.2211
    1DIPC   C1A 7589   0.631  24.944   5.969  0.3958  0.0899  0.0625
    1DIPC   D2A 7590   1.017  24.766   5.880 -0.1853  0.0240 -0.1138
    1DIPC   D3A 7591   1.072  24.504   5.451 -0.0321 -0.1517  0.0746
    1DIPC   C4A 7592   1.205  24.494   5.106 -0.2677 -0.2164 -0.0439
    1DIPC   C1B 7593   0.076  25.034   6.073 -0.1400 -0.1192  0.3966
    1DIPC   D2B 7594  -0.182  24.713   5.838 -0.4067 -0.0992 -0.1427
    1DIPC   D3B 7595  -0.223  24.587   5.449 -0.2935  0.0059  0.2495
    1DIPC   C4B 7596  -0.148  25.013   5.230  0.0019 -0.0946  0.0888
    1DIPC   NC3 7597  12.839  23.018   6.764 -0.3198 -0.2657  0.0591
    1DIPC   PO4 7598  12.620  22.817   6.417  0.0266 -0.1195  0.0856
    1DIPC   GL1 7599  12.473  22.867   5.971  0.1012  0.1188 -0.0304
    1DIPC   GL2 7600  12.335  23.025   6.006  0.3965 -0.0408 -0.0447
    1DIPC   C1A 7601  12.503  22.824   5.508  0.0538 -0.2880 -0.0201
    1DIPC   D2A 7602  12.400  22.750   5.074  0.0792  0.1365 -0.0125
    1DIPC   D3A 7603  12.180  23.090   4.949  0.2835  0.2919 -0.1096
    1DIPC   C4A 7604  12.221  23.300   5.306 -0.2237 -0.1565 -0.2334
    1DIPC   C1B 7605  12.078  23.339   5.812 -0.0047  0.1220  0.0564
    1DIPC   D2B 7606  11.658  23.466   5.873  0.1685 -0.0976 -0.1003
    1DIPC   D3B 7607  11.590  23.139   5.603 -0.0079  0.0960  0.1658
    1DIPC   C4B 7608  11.714  23.065   5.218  0.1606 -0.1790  0.1175
    1DIPC   NC3 7609  24.895  10.226   6.249 -0.0032 -0.0137 -0.2931
    1DIPC   PO4 7610  25.227   9.977   6.188 -0.0054 -0.0271  0.0078
    1DIPC   GL1 7611  25.069   9.963   5.725 -0.1391 -0.0145  0.2527
    1DIPC   GL2 7612  24.825   9.898   5.616 -0.1776 -0.1698  0.1232
    1DIPC   C1A 7613  25.135  10.103   5.251  0.0131 -0.0117 -0.1310
    1DIPC   D2A 7614  25.128  10.036   4.724 -0.0941 -0.0377  0.0174
    1DIPC   D3A 7615  24.695   9.873   4.622  0.1798 -0.2396 -0.1884
    1DIPC   C4A 7616  24.595   9.774   4.162 -0.2692 -0.1308 -0.0812
    1DIPC   C1B 7617  24.644  10.184   5.304 -0.2539  0.1662  0.3087
    1DIPC   D2B 7618  24.448  10.569   5.422  0.1986  0.0912 -0.2132
    1DIPC   D3B 7619  24.282  10.935   5.290  0.3757  0.0894 -0.0881
    1DIPC   C4B 7620  23.989  11.134   5.004  0.2117 -0.2062  0.0824
    1DIPC   NC3 7621  19.085  28.875   7.358  0.2221 -0.0140  0.1712
    1DIPC   PO4 7622  18.851  28.713   7.142 -0.4226  0.0845  0.0491
    1DIPC   GL1 7623  18.759  28.540   6.693  0.2003  0.2419  0.1691
    1DIPC   GL2 7624  18.992  28.600   6.416 -0.0384 -0.1290  0.1840
    1DIPC   C1A 7625  18.443  28.569   6.365  0.1343 -0.2845  0.0001
    1DIPC   D2A 7626  18.370  28.640   5.972 -0.0601 -0.3361  0.1747
    1DIPC   D3A 7627  18.759  28.249   6.108  0.3633 -0.0536 -0.1530
    1DIPC   C4A 7628  18.594  27.850   5.934 -0.0596  0.0730 -0.0525
    1DIPC   C1B 7629  18.880  28.877   6.074 -0.0342  0.3273 -0.1492
    1DIPC   D2B 7630  18.896  29.052   5.576 -0.2321 -0.2576 -0.3062
    1DIPC   D3B 7631  18.595  29.044   5.146 -0.1010 -0.0332 -0.0294
    1DIPC   C4B 7632  18.689  28.656   5.087 -0.0955  0.1918 -0.0024
    1DIPC   NC3 7633   1.130  18.344   5.812  0.1362 -0.0339 -0.2789
    1DIPC   PO4 7634   0.972  17.836   5.803  0.2894  0.0745  0.2065
    1DIPC   GL1 7635   0.990  18.047   5.440  0.0353 -0.2315 -0.1459
    1DIPC   GL2 7636   1.210  18.255   5.304  0.0520 -0.1008 -0.0448
    1DIPC   C1A 7637   0.690  18.155   5.194  0.0519 -0.1777  0.0240
    1DIPC   D2A 7638   0.470  18.354   4.881 -0.0049  0.1420  0.1011
    1DIPC   D3A 7639   0.904  18.296   4.678  0.0378 -0.0330 -0.0986
    1DIPC   C4A 7640   1.261  18.606   4.708  0.2119  0.0033 -0.1055
    1DIPC   C1B 7641   1.348  18.156   4.962 -0.0224  0.0215  0.1390
    1DIPC   D2B 7642   1.575  18.229   4.609 -0.1078  0.0602 -0.1300
    1DIPC   D3B 7643   1.984  18.115   4.855  0.1679  0.0204  0.2036
    1DIPC   C4B 7644   2.224  17.948   4.505 -0.0437  0.2047 -0.1087
    1DIPC   NC3 7645  24.310  13.246   5.826 -0.1018  0.4813 -0.3491
    1DIPC   PO4 7646  24.336  12.757   5.793  0.2608  0.0500 -0.0241
    1DIPC   GL1 7647  24.513  12.518   5.356  0.0222 -0.2035  0.0006
    1DIPC   GL2 7648  24.933  12.569   5.256 -0.0859  0.2152 -0.0433
    1DIPC   C1A 7649  24.497  12.718   4.890 -0.1007  0.0247  0.0488
    1DIPC   D2A 7650  24.588  13.066   4.594  0.0754 -0.1578  0.0109
    1DIPC   D3A 7651  24.382  12.907   4.244 -0.2496 -0.1636  0.3628
    1DIPC   C4A 7652  24.703  12.483   3.960 -0.2379 -0.3032 -0.0706
    1DIPC   C1B 7653  25.022  12.384   4.767 -0.3313  0.2030 -0.0372
    1DIPC   D2B 7654  25.180  12.300   4.305 -0.0725  0.2013 -0.0413
    1DIPC   D3B 7655  25.587  11.969   4.307 -0.2466  0.0177 -0.2249
    1DIPC   C4B 7656  25.924  12.046   4.604  0.1444 -0.1164 -0.0928
    1DIPC   NC3 7657   1.299  14.891   6.116  0.0667  0.4353 -0.1287
    1DIPC   PO4 7658   0.916  15.114   5.973  0.1458  0.0783  0.2824
    1DIPC   GL1 7659   0.978  15.076   5.520  0.0779  0.1158 -0.0746
    1DIPC   GL2 7660   1.279  15.110   5.471  0.0071 -0.3149 -0.3158
    1DIPC   C1A 7661   1.191  14.952   5.021  0.2828  0.2841 -0.0805
    1DIPC   D2A 7662   1.291  14.781   4.657 -0.1109 -0.0083  0.1906
    1DIPC   D3A 7663   1.052  14.825   4.219  0.1363 -0.4360 -0.1730
    1DIPC   C4A 7664   1.263  14.931   3.923 -0.4138  0.2023 -0.0434
    1DIPC   C1B 7665   1.332  15.403   5.298  0.1131  0.0791 -0.0571
    1DIPC   D2B 7666   1.209  15.634   4.897  0.2309  0.0790  0.2239
    1DIPC   D3B 7667   1.243  15.818   4.525  0.0979 -0.0723 -0.2547
    1DIPC   C4B 7668   1.547  16.011   4.448 -0.1619 -0.2111  0.0425
    1DIPC   NC3 7669  24.508  20.045   6.582 -0.1033  0.0966  0.0186
    1DIPC   PO4 7670  24.892  20.198   6.739  0.0191  0.2041 -0.0527
    1DIPC   GL1 7671  24.775  20.369   6.316  0.0029 -0.0812 -0.1961
    1DIPC   GL2 7672  24.893  20.011   6.158  0.1288  0.2201  0.0365
    1DIPC   C1A 7673  24.751  20.681   6.025  0.1270  0.2536  0.2825
    1DIPC   D2A 7674  24.649  20.740   5.597  0.1376 -0.1488  0.2015
    1DIPC   D3A 7675  24.874  20.559   5.312 -0.1399 -0.0228  0.1333
    1DIPC   C4A 7676  24.714  20.858   4.920  0.5011 -0.1778 -0.2003
    1DIPC   C1B 7677  25.095  20.307   5.961 -0.1520  0.0206 -0.2698
    1DIPC   D2B 7678  25.253  20.462   5.569  0.2031 -0.0053  0.0060
    1DIPC   D3B 7679  25.203  20.828   5.564 -0.1174  0.1927  0.0122
    1DIPC   C4B 7680  25.346  20.817   5.909  0.0448  0.0357 -0.3553
    1DIPC   NC3 7681  20.916   3.597   6.563  0.3365 -0.2250 -0.0693
    1DIPC   PO4 7682  20.675   3.326   6.311  0.1595  0.2392  0.0161
    1DIPC   GL1 7683  20.626   3.396   5.899 -0.0713  0.1420 -0.2151
    1DIPC   GL2 7684  20.477   3.581   5.704 -0.0269 -0.0752  0.0674
    1DIPC   C1A 7685  20.385   3.067   5.587 -0.0404 -0.2122  0.1404
    1DIPC   D2A 7686  20.125   2.744   5.447 -0.0362  0.0531 -0.1552
    1DIPC   D3A 7687  20.040   3.066   5.156  0.1224  0.0108  0.3212
    1DIPC   C4A 7688  19.899   3.413   5.041  0.3200  0.1373 -0.2361
    1DIPC   C1B 7689  20.823   3.304   5.449  0.0163  0.1909  0.4669
    1DIPC   D2B 7690  20.689   3.001   5.114 -0.2605 -0.0218  0.0175
    1DIPC   D3B 7691  20.450   2.908   4.849 -0.2449  0.1810 -0.0076
    1DIPC   C4B 7692  20.616   3.008   4.500 -0.4007 -0.4902  0.4704
    1DIPC   NC3 7693   9.197   6.154   7.016 -0.1755  0.0823  0.0021
    1DIPC   PO4 7694   9.051   6.493   6.666 -0.0733  0.1770 -0.0544
    1DIPC   GL1 7695   9.286   6.164   6.449 -0.1707 -0.4077 -0.2573
    1DIPC   GL2 7696   9.409   5.869   6.620  0.0589  0.0951  0.2181
    1DIPC   C1A 7697   9.214   6.123   6.005  0.1068 -0.2402  0.0462
    1DIPC   D2A 7698   9.054   6.268   5.617 -0.0617  0.4734  0.2048
    1DIPC   D3A 7699   9.439   5.989   5.495 -0.1096  0.0637 -0.1121
    1DIPC   C4A 7700   9.303   5.642   5.276  0.1686 -0.1100  0.0934
    1DIPC   C1B 7701   9.686   5.599   6.353 -0.1095  0.1562  0.2657
    1DIPC   D2B 7702   9.963   5.452   6.085  0.0692  0.2891  0.1934
    1DIPC   D3B 7703   9.762   5.524   5.680  0.0151 -0.0021  0.1744
    1DIPC   C4B 7704   9.687   5.271   5.334  0.2368 -0.1821  0.0325
    1DIPC   NC3 7705   0.800  24.223   6.387  0.0188 -0.0065  0.0502
    1DIPC   PO4 7706   1.037  23.915   6.480  0.4008 -0.4007 -0.0176
    1DIPC   GL1 7707   1.025  23.958   5.979  0.1157 -0.0418 -0.1554
    1DIPC   GL2 7708   1.019  24.286   5.894  0.0272  0.0849  0.2865
    1DIPC   C1A 7709   1.221  23.892   5.540 -0.1900 -0.0105 -0.1050
    1DIPC   D2A 7710   1.253  23.621   5.133 -0.1676  0.4004 -0.3255
    1DIPC   D3A 7711   1.255  23.781   4.742 -0.1998  0.0120 -0.0872
    1DIPC   C4A 7712   1.607  23.951   4.764 -0.3086  0.1364  0.0807
    1DIPC   C1B 7713   0.590  24.509   5.775 -0.1197  0.3960 -0.1557
    1DIPC   D2B 7714   0.239  24.799   5.670 -0.4370  0.2732 -0.1428
    1DIPC   D3B 7715   0.259  24.604   5.274 -0.0602  0.1510 -0.0586
    1DIPC   C4B 7716   0.213  24.704   4.844  0.1535 -0.0226  0.0833
    1DIPC   NC3 7717   8.617  22.101   6.603 -0.0870 -0.0755  0.0985
    1DIPC   PO4 7718   8.951  22.028   6.324  0.1444 -0.2654 -0.1691
    1DIPC   GL1 7719   9.042  22.075   5.912 -0.1732 -0.1418  0.2072
    1DIPC   GL2 7720   9.361  22.001   5.769  0.2246  0.0337 -0.0797
    1DIPC   C1A 7721   9.032  22.129   5.459  0.0527  0.4352  0.2816
    1DIPC   D2A 7722   8.983  22.248   4.993 -0.0726  0.0682  0.0485
    1DIPC   D3A 7723   9.014  22.345   4.569 -0.2195 -0.0262  0.1023
    1DIPC   C4A 7724   9.540  22.570   4.440  0.1127 -0.0073 -0.0988
    1DIPC   C1B 7725   9.468  21.862   5.328  0.0918  0.0456  0.3245
    1DIPC   D2B 7726   9.381  21.569   5.042 -0.1271 -0.0130  0.2587
    1DIPC   D3B 7727   9.309  21.396   4.633 -0.0165  0.1144  0.5225
    1DIPC   C4B 7728   9.194  21.390   4.155 -0.1324  0.2023  0.0825
    1DIPC   NC3 7729  16.455  23.191   6.626  0.6944  0.5197 -0.2068
    1DIPC   PO4 7730  16.865  23.210   6.361  0.0353  0.0960  0.0025
    1DIPC   GL1 7731  16.912  22.959   5.947 -0.1443 -0.3396  0.1144
    1DIPC   GL2 7732  16.871  23.240   5.760 -0.2019 -0.3988  0.0908
    1DIPC   C1A 7733  17.335  22.822   5.784  0.0923  0.2562 -0.0973
    1DIPC   D2A 7734  17.712  22.633   6.050 -0.2256  0.3947 -0.2304
    1DIPC   D3A 7735  17.937  22.631   5.738 -0.0949 -0.0267  0.2255
    1DIPC   C4A 7736  17.983  22.404   5.347  0.2120 -0.0917 -0.0706
    1DIPC   C1B 7737  17.015  23.457   5.363  0.1196 -0.0512 -0.1288
    1DIPC   D2B 7738  17.100  23.879   5.096 -0.0497  0.2521 -0.3172
    1DIPC   D3B 7739  17.322  24.134   4.760 -0.2538 -0.0967 -0.1220
    1DIPC   C4B 7740  17.616  23.801   4.619  0.1999  0.2801  0.0192
    1DIPC   NC3 7741  22.983  17.708   7.398 -0.0468  0.2914  0.1071
    1DIPC   PO4 7742  22.690  17.744   7.094 -0.0839 -0.0615  0.0233
    1DIPC   GL1 7743  22.517  17.659   6.768 -0.1289 -0.0838  0.0072
    1DIPC   GL2 7744  22.792  17.819   6.542  0.0965 -0.1943 -0.0433
    1DIPC   C1A 7745  22.374  17.632   6.328  0.1150  0.2466 -0.1021
    1DIPC   D2A 7746  22.661  17.712   5.983  0.1906 -0.1768 -0.0917
    1DIPC   D3A 7747  22.439  17.382   5.786 -0.0014  0.0993 -0.1894
    1DIPC   C4A 7748  22.248  17.071   6.076  0.2146 -0.0402  0.2106
    1DIPC   C1B 7749  22.964  18.132   6.257  0.1817  0.4086  0.0221
    1DIPC   D2B 7750  22.923  18.385   5.990 -0.0042 -0.0197 -0.0959
    1DIPC   D3B 7751  23.278  18.227   5.839 -0.2851  0.1431 -0.2827
    1DIPC   C4B 7752  23.234  18.270   5.394  0.1348  0.1365 -0.2151
    1DIPC   NC3 7753   2.422   9.813   6.177  0.2282  0.0717 -0.2056
    1DIPC   PO4 7754   2.833   9.946   5.962  0.0599  0.0041 -0.0831
    1DIPC   GL1 7755   3.022  10.189   5.625  0.2226 -0.1354 -0.0326
    1DIPC   GL2 7756   2.772  10.346   5.565  0.2233 -0.2156  0.4355
    1DIPC   C1A 7757   3.411  10.266   5.513 -0.1369  0.5182  0.3131
    1DIPC   D2A 7758   3.817  10.378   5.478 -0.0533  0.1513  0.1071
    1DIPC   D3A 7759   3.734  10.746   5.461  0.3529  0.2528 -0.1078
    1DIPC   C4A 7760   3.481  10.841   5.055 -0.0414 -0.0746 -0.1955
    1DIPC   C1B 7761   2.694  10.172   5.135  0.1307 -0.2879 -0.0192
    1DIPC   D2B 7762   2.724   9.689   5.047 -0.0572 -0.0277 -0.1199
    1DIPC   D3B 7763   3.031   9.752   4.799 -0.1822  0.1512 -0.1002
    1DIPC   C4B 7764   3.436   9.602   4.805  0.0898  0.0283 -0.4252
    1DIPC   NC3 7765   6.122   0.187   7.124  0.0818 -0.2600  0.4789
    1DIPC   PO4 7766   6.198  -0.228   7.033 -0.1878  0.0222  0.4186
    1DIPC   GL1 7767   6.144  -0.136   6.636 -0.2090  0.0064 -0.1639
    1DIPC   GL2 7768   6.077   0.152   6.583 -0.4690  0.2568  0.1774
    1DIPC   C1A 7769   6.043  -0.429   6.194  0.2247 -0.1552 -0.2013
    1DIPC   D2A 7770   6.032  -0.572   5.895 -0.0680 -0.1526  0.2106
    1DIPC   D3A 7771   6.472  -0.728   5.793 -0.1676  0.3664 -0.0047
    1DIPC   C4A 7772   6.553  -0.537   6.224 -0.0049  0.5277 -0.1736
    1DIPC   C1B 7773   6.295   0.076   6.185 -0.0963 -0.0036 -0.0967
    1DIPC   D2B 7774   6.536  -0.136   5.984  0.1093  0.0996  0.3162
    1DIPC   D3B 7775   6.264  -0.186   5.647 -0.1624 -0.1166  0.0775
    1DIPC   C4B 7776   6.238  -0.468   5.332 -0.0841  0.3048 -0.1512
    1DIPC   NC3 7777  23.852  21.708   6.519  0.0658 -0.1224  0.1335
    1DIPC   PO4 7778  23.507  21.297   6.686  0.0288  0.0872  0.2785
    1DIPC   GL1 7779  23.836  21.279   6.360 -0.1095 -0.0519 -0.1542
    1DIPC   GL2 7780  23.653  21.199   6.083  0.2525  0.2847 -0.3611
    1DIPC   C1A 7781  24.177  21.028   6.115 -0.0396 -0.1641  0.0860
    1DIPC   D2A 7782  24.186  20.737   5.774 -0.1952  0.1331  0.0088
    1DIPC   D3A 7783  23.800  20.723   5.763  0.0415 -0.0363  0.1200
    1DIPC   C4A 7784  23.593  20.472   5.510  0.1378  0.3341 -0.0407
    1DIPC   C1B 7785  23.689  21.248   5.627 -0.0587 -0.1117  0.1198
    1DIPC   D2B 7786  23.464  21.464   5.230 -0.1322  0.0899 -0.2651
    1DIPC   D3B 7787  23.293  21.130   4.946  0.1222  0.3146 -0.2406
    1DIPC   C4B 7788  23.230  20.726   5.110  0.1007  0.0485  0.2557
    1DIPC   NC3 7789  21.160  21.492   6.673  0.0912 -0.1959 -0.0650
    1DIPC   PO4 7790  21.542  21.509   6.462 -0.6013  0.0251  0.0673
    1DIPC   GL1 7791  21.635  21.095   6.201  0.1027 -0.4429 -0.1383
    1DIPC   GL2 7792  21.891  21.023   5.957 -0.0933  0.0538 -0.0667
    1DIPC   C1A 7793  21.367  20.670   6.120 -0.2894 -0.3767  0.0307
    1DIPC   D2A 7794  21.242  20.395   5.820  0.0005  0.1020 -0.4180
    1DIPC   D3A 7795  21.382  20.571   5.408  0.1022  0.3178 -0.0343
    1DIPC   C4A 7796  21.066  20.557   5.130  0.0970  0.0034  0.1892
    1DIPC   C1B 7797  21.492  20.993   5.665 -0.2817 -0.3989  0.0722
    1DIPC   D2B 7798  21.168  20.910   5.767  0.0347  0.0408 -0.3632
    1DIPC   D3B 7799  20.946  21.088   5.409 -0.0001  0.0975  0.0578
    1DIPC   C4B 7800  21.196  21.008   4.995 -0.2344 -0.0737 -0.1765
    1DIPC   NC3 7801  25.980  17.605   6.483 -0.1080 -0.0615 -0.2654
    1DIPC   PO4 7802  25.887  17.392   6.182  0.0269  0.1581  0.0850
    1DIPC   GL1 7803  25.829  17.391   5.835  0.0179  0.0223 -0.3070
    1DIPC   GL2 7804  25.781  17.721   5.835 -0.0224 -0.0622  0.1198
    1DIPC   C1A 7805  25.521  17.263   5.538  0.0618  0.0633  0.0235
    1DIPC   D2A 7806  25.232  17.353   5.169  0.0121 -0.0981 -0.0752
    1DIPC   D3A 7807  25.344  17.395   4.722 -0.0549 -0.0038  0.0109
    1DIPC   C4A 7808  25.040  17.575   4.590  0.0695 -0.0787 -0.5111
    1DIPC   C1B 7809  25.751  17.706   5.389  0.3078  0.1049 -0.1767
    1DIPC   D2B 7810  25.774  17.517   5.017  0.0085  0.1471  0.1122
    1DIPC   D3B 7811  26.029  17.239   5.326  0.1397 -0.1524 -0.1093
    1DIPC   C4B 7812  26.436  17.346   5.236 -0.2406  0.0568 -0.0694
    1DIPC   NC3 7813  19.108   5.928   7.028 -0.1490 -0.1013  0.0304
    1DIPC   PO4 7814  18.716   5.600   6.958  0.3008  0.1469 -0.2979
    1DIPC   GL1 7815  18.924   5.673   6.554 -0.0028 -0.0988 -0.0642
    1DIPC   GL2 7816  18.996   5.290   6.552  0.0455 -0.2514  0.0473
    1DIPC   C1A 7817  18.949   5.866   6.183  0.2428  0.1429  0.1727
    1DIPC   D2A 7818  18.607   5.958   5.801  0.2170  0.1099 -0.0224
    1DIPC   D3A 7819  18.653   6.274   5.545  0.2182 -0.1020  0.2338
    1DIPC   C4A 7820  18.511   5.962   5.210  0.0723  0.0767 -0.0483
    1DIPC   C1B 7821  18.802   5.402   6.091  0.0836  0.1078 -0.1497
    1DIPC   D2B 7822  19.034   5.600   5.725 -0.0788  0.3064  0.0358
    1DIPC   D3B 7823  18.997   5.955   5.453  0.2436  0.1727  0.1412
    1DIPC   C4B 7824  19.374   6.086   5.013 -0.0295 -0.3799 -0.0948
    1DIPC   NC3 7825  19.860  26.616   7.392  0.0684  0.1301  0.0898
    1DIPC   PO4 7826  19.929  26.478   6.964  0.3550  0.2229 -0.1551
    1DIPC   GL1 7827  19.990  26.292   6.509 -0.1052 -0.0269  0.1789
    1DIPC   GL2 7828  20.215  26.114   6.418  0.1525 -0.0247  0.1089
    1DIPC   C1A 7829  19.775  26.243   6.137  0.0200  0.0463 -0.1982
    1DIPC   D2A 7830  19.766  26.273   5.838 -0.0219  0.0394  0.1420
    1DIPC   D3A 7831  19.880  25.912   5.498 -0.2344 -0.0411 -0.1182
    1DIPC   C4A 7832  19.683  25.598   5.595 -0.2185 -0.0816  0.0590
    1DIPC   C1B 7833  20.576  26.059   6.116 -0.0290 -0.1089  0.3109
    1DIPC   D2B 7834  20.770  26.015   5.735  0.0334 -0.1691  0.0451
    1DIPC   D3B 7835  21.140  25.806   5.700  0.0641  0.0375  0.1849
    1DIPC   C4B 7836  21.141  25.479   5.989  0.1155  0.1728 -0.1731
    1DIPC   NC3 7837  20.824  16.294   6.918  0.2334 -0.1957  0.1742
    1DIPC   PO4 7838  21.107  16.530   6.767  0.4093 -0.1273 -0.3115
    1DIPC   GL1 7839  20.825  16.728   6.537 -0.1506 -0.1547 -0.0344
    1DIPC   GL2 7840  20.648  16.464   6.487 -0.1638 -0.1422  0.0464
    1DIPC   C1A 7841  20.732  16.791   6.113 -0.0776  0.1259 -0.1486
    1DIPC   D2A 7842  20.570  16.898   5.733  0.0767  0.0689 -0.0543
    1DIPC   D3A 7843  20.679  17.076   5.333  0.0363  0.0220  0.1353
    1DIPC   C4A 7844  20.326  16.951   5.078 -0.1648  0.3712  0.2277
    1DIPC   C1B 7845  20.514  16.258   5.989 -0.2798  0.1485 -0.5554
    1DIPC   D2B 7846  20.577  16.187   5.596  0.0330  0.1687 -0.0562
    1DIPC   D3B 7847  20.545  16.547   5.433  0.0233 -0.0002  0.1560
    1DIPC   C4B 7848  20.364  16.446   5.086 -0.0768 -0.3815  0.2563
    1DIPC   NC3 7849  24.242  12.364   6.069  0.1587 -0.0769  0.2629
    1DIPC   PO4 7850  24.523  11.976   6.019 -0.1685 -0.0682 -0.1177
    1DIPC   GL1 7851  24.496  11.992   5.517  0.2575 -0.1769  0.2652
    1DIPC   GL2 7852  24.746  12.037   5.343 -0.1096  0.1174  0.0910
    1DIPC   C1A 7853  24.185  11.924   5.194 -0.2804  0.1411  0.3000
    1DIPC   D2A 7854  24.160  11.872   4.710  0.1365 -0.0640 -0.2705
    1DIPC   D3A 7855  23.907  11.722   4.484 -0.1127  0.0554 -0.0271
    1DIPC   C4A 7856  24.051  11.289   4.490  0.1398  0.1768 -0.2989
    1DIPC   C1B 7857  24.552  12.228   4.946 -0.1556  0.0320  0.0103
    1DIPC   D2B 7858  24.528  12.229   4.511  0.3328 -0.1489  0.0402
    1DIPC   D3B 7859  24.101  12.292   4.522 -0.1390 -0.1117  0.1057
    1DIPC   C4B 7860  23.682  12.273   4.736 -0.0904 -0.0391 -0.2877
    1DIPC   NC3 7861  20.116   3.400   6.256 -0.1099  0.0776  0.3539
    1DIPC   PO4 7862  19.896   3.702   6.544 -0.0501 -0.0606 -0.1077
    1DIPC   GL1 7863  19.929   3.831   6.120 -0.2477  0.0322  0.1018
    1DIPC   GL2 7864  19.716   3.745   5.875  0.0105 -0.4700 -0.2268
    1DIPC   C1A 7865  20.136   3.943   5.693  0.0555 -0.5044 -0.2719
    1DIPC   D2A 7866  20.040   3.869   5.238  0.1305 -0.4105 -0.0920
    1DIPC   D3A 7867  19.914   4.207   4.890  0.2797  0.1401 -0.3080
    1DIPC   C4A 7868  20.126   4.298   4.470 -0.1081  0.0696 -0.0749
    1DIPC   C1B 7869  19.609   3.833   5.465 -0.0159 -0.1980  0.0239
    1DIPC   D2B 7870  19.514   3.786   4.968  0.1614  0.1534 -0.1918
    1DIPC   D3B 7871  19.187   3.640   5.145 -0.3114  0.1265 -0.0078
    1DIPC   C4B 7872  18.718   3.733   4.981  0.0020 -0.0368 -0.1511
    1DIPC   NC3 7873  19.111   6.441   7.718  0.0929 -0.1276 -0.1346
    1DIPC   PO4 7874  18.974   6.409   7.156 -0.0209  0.2185  0.1996
    1DIPC   GL1 7875  18.723   6.187   6.872  0.0609 -0.1310 -0.1096
    1DIPC   GL2 7876  18.373   6.361   6.749  0.2467 -0.4209 -0.0403
    1DIPC   C1A 7877  18.605   6.061   6.462  0.1747 -0.0049  0.0077
    1DIPC   D2A 7878  18.436   5.699   6.281  0.2293 -0.0415 -0.0465
    1DIPC   D3A 7879  18.259   5.595   5.909  0.1376  0.1653  0.2678
    1DIPC   C4A 7880  18.577   5.521   5.558  0.1002 -0.2216 -0.1906
    1DIPC   C1B 7881  18.104   6.211   6.450 -0.0126 -0.1203 -0.2378
    1DIPC   D2B 7882  18.211   6.188   6.104  0.0376 -0.0373 -0.2564
    1DIPC   D3B 7883  18.623   6.357   6.086 -0.1538 -0.3866  0.0751
    1DIPC   C4B 7884  18.662   6.842   6.112  0.0222 -0.1532 -0.2069
    1DIPC   NC3 7885   6.658  28.964   7.143 -0.0474 -0.0334  0.3255
    1DIPC   PO4 7886   6.594  29.479   7.119 -0.1011  0.0420 -0.0128
    1DIPC   GL1 7887   6.755  29.287   6.727  0.0465  0.0958  0.0353
    1DIPC   GL2 7888   6.696  29.526   6.519 -0.1616 -0.2433  0.1474
    1DIPC   C1A 7889   6.966  29.153   6.297 -0.2120 -0.1060 -0.2243
    1DIPC   D2A 7890   7.056  29.373   5.949  0.0102  0.2513  0.1117
    1DIPC   D3A 7891   7.486  29.525   5.852 -0.2462 -0.3382  0.1269
    1DIPC   C4A 7892   7.701  29.564   6.226  0.4657 -0.2024  0.2607
    1DIPC   C1B 7893   6.685  29.697   6.048  0.1837 -0.0360 -0.0564
    1DIPC   D2B 7894   6.742  29.505   5.542 -0.0795 -0.0180  0.1219
    1DIPC   D3B 7895   6.921  29.436   5.142 -0.3352  0.2211  0.3109
    1DIPC   C4B 7896   7.151  29.064   5.094  0.3416 -0.2558 -0.3413
    1DIPC   NC3 7897  18.584  19.829   7.557  0.2839 -0.1753 -0.2993
    1DIPC   PO4 7898  18.692  20.242   7.337 -0.0796  0.0034  0.0975
    1DIPC   GL1 7899  18.767  20.133   6.953  0.1226 -0.2280  0.3261
    1DIPC   GL2 7900  18.779  20.371   6.820  0.0466 -0.2012 -0.1117
    1DIPC   C1A 7901  18.628  19.875   6.653  0.0675 -0.1058 -0.0355
    1DIPC   D2A 7902  18.400  19.528   6.504 -0.3446  0.2958 -0.1572
    1DIPC   D3A 7903  18.160  19.386   6.114 -0.2252  0.0414  0.0878
    1DIPC   C4A 7904  18.264  19.232   5.607 -0.4540  0.0443  0.0139
    1DIPC   C1B 7905  18.815  20.362   6.371  0.0971  0.1988  0.0601
    1DIPC   D2B 7906  18.836  20.055   6.102  0.0423 -0.0729 -0.1509
    1DIPC   D3B 7907  18.475  19.799   6.066 -0.0108 -0.3225 -0.0386
    1DIPC   C4B 7908  18.333  19.719   5.680  0.1055 -0.0843  0.1860
    1DIPC   NC3 7909   8.110   1.502   7.317  0.0287  0.3095  0.2480
    1DIPC   PO4 7910   8.618   1.521   7.208  0.2974 -0.0766 -0.3631
    1DIPC   GL1 7911   8.580   1.323   6.900  0.0815 -0.1886 -0.1430
    1DIPC   GL2 7912   8.171   1.387   6.848 -0.2974  0.1915 -0.0741
    1DIPC   C1A 7913   8.496   1.127   6.502 -0.0887  0.0509  0.3339
    1DIPC   D2A 7914   8.654   1.213   6.161  0.1141  0.0511 -0.3171
    1DIPC   D3A 7915   8.783   1.490   5.916  0.0413 -0.3415 -0.0178
    1DIPC   C4A 7916   9.184   1.687   5.865  0.3449  0.3593 -0.0976
    1DIPC   C1B 7917   8.334   1.586   6.381 -0.1290 -0.3076 -0.5113
    1DIPC   D2B 7918   8.198   2.013   6.291  0.6382 -0.0933 -0.0771
    1DIPC   D3B 7919   8.374   2.330   5.902  0.1621  0.1537  0.2011
    1DIPC   C4B 7920   8.320   2.169   5.466  0.1369  0.2169 -0.0787
    1DIPC   NC3 7921  23.560  24.056   7.093 -0.1587 -0.2072  0.0372
    1DIPC   PO4 7922  23.595  24.296   6.777  0.0306  0.3671  0.0514
    1DIPC   GL1 7923  23.449  24.195   6.402 -0.0501 -0.2599  0.2039
    1DIPC   GL2 7924  23.655  24.286   6.088  0.0940 -0.1025 -0.2706
    1DIPC   C1A 7925  23.117  24.243   6.073 -0.1580  0.1925 -0.0993
    1DIPC   D2A 7926  22.754  24.290   5.797  0.0779 -0.1203  0.1352
    1DIPC   D3A 7927  22.924  23.999   5.466 -0.3213 -0.4505 -0.2794
    1DIPC   C4A 7928  22.846  23.672   5.287  0.1453 -0.2308  0.3416
    1DIPC   C1B 7929  23.405  24.634   6.144 -0.2637 -0.2407  0.0100
    1DIPC   D2B 7930  23.008  24.718   5.968  0.1443  0.1413 -0.0098
    1DIPC   D3B 7931  23.018  24.617   5.430 -0.2571  0.1172  0.1985
    1DIPC   C4B 7932  23.272  24.305   5.231 -0.0921  0.0243  0.0947
    1DIPC   NC3 7933  16.819   2.501   6.664 -0.2409  0.0924  0.1459
    1DIPC   PO4 7934  17.114   2.106   6.784  0.1049 -0.0887 -0.0115
    1DIPC   GL1 7935  16.910   2.103   6.327  0.1595 -0.0674  0.2116
    1DIPC   GL2 7936  16.753   1.872   6.258 -0.2488 -0.3194 -0.0669
    1DIPC   C1A 7937  17.072   2.313   5.969 -0.1570 -0.2927 -0.0288
    1DIPC   D2A 7938  17.047   2.716   5.632 -0.0602  0.0078  0.2278
    1DIPC   D3A 7939  17.388   3.018   5.621 -0.0642 -0.0713  0.2154
    1DIPC   C4A 7940  17.830   2.904   5.663 -0.1051 -0.0520 -0.0742
    1DIPC   C1B 7941  16.895   1.803   5.859  0.1049 -0.2821 -0.1196
    1DIPC   D2B 7942  16.552   1.798   5.569  0.2256 -0.0093  0.0758
    1DIPC   D3B 7943  16.514   1.434   5.211  0.1913 -0.2721 -0.0832
    1DIPC   C4B 7944  16.520   1.442   4.786 -0.0390 -0.1344  0.1749
    1DIPC   NC3 7945   6.810   9.328   6.331 -0.1791 -0.0386 -0.1199
    1DIPC   PO4 7946   6.612   9.680   6.289  0.1663  0.1089  0.1115
    1DIPC   GL1 7947   6.321   9.783   5.989 -0.0480  0.1242  0.0030
    1DIPC   GL2 7948   6.599   9.985   5.881 -0.0783  0.1375  0.0665
    1DIPC   C1A 7949   6.330   9.803   5.541  0.0018  0.0165  0.1030
    1DIPC   D2A 7950   5.956   9.691   5.224 -0.2964  0.0318  0.2511
    1DIPC   D3A 7951   5.805   9.462   4.870 -0.0801  0.0678  0.1005
    1DIPC   C4A 7952   6.082   9.173   4.592  0.1151 -0.0388 -0.0476
    1DIPC   C1B 7953   6.821   9.913   5.602 -0.2727 -0.0166  0.0830
    1DIPC   D2B 7954   6.653  10.046   5.198  0.0311  0.1796 -0.0952
    1DIPC   D3B 7955   6.253  10.340   5.479  0.1542  0.4921  0.1811
    1DIPC   C4B 7956   5.866  10.165   5.361  0.0362  0.1144 -0.1312
    1DIPC   NC3 7957  10.056  28.111   7.458 -0.3995  0.4027 -0.1890
    1DIPC   PO4 7958   9.669  27.876   7.382 -0.3248  0.2545  0.1841
    1DIPC   GL1 7959   9.561  27.895   6.963 -0.2209  0.0717 -0.1159
    1DIPC   GL2 7960   9.713  27.658   6.655 -0.1665  0.0154  0.1628
    1DIPC   C1A 7961   9.405  28.125   6.684  0.0778 -0.3459  0.1575
    1DIPC   D2A 7962   9.316  28.330   6.240 -0.2211 -0.2459  0.3881
    1DIPC   D3A 7963   9.847  28.386   6.163  0.0674 -0.0409  0.0094
    1DIPC   C4A 7964   9.919  28.766   6.130  0.0237 -0.1976 -0.0136
    1DIPC   C1B 7965  10.102  27.591   6.538 -0.1309 -0.0664  0.2227
    1DIPC   D2B 7966  10.603  27.689   6.391 -0.1383  0.2919 -0.0240
    1DIPC   D3B 7967  10.358  28.056   6.472 -0.1630  0.0806 -0.3093
    1DIPC   C4B 7968   9.939  28.062   6.565  0.0719 -0.2462 -0.1520
    1DIPC   NC3 7969  10.933   6.102   6.908 -0.0718 -0.2914 -0.3336
    1DIPC   PO4 7970  10.820   5.841   7.076 -0.1459 -0.1892  0.0698
    1DIPC   GL1 7971  10.968   5.633   6.698  0.0275  0.3504 -0.0380
    1DIPC   GL2 7972  11.344   5.750   6.567  0.0860  0.3387  0.1244
    1DIPC   C1A 7973  11.106   5.387   6.287  0.2653  0.0819  0.2814
    1DIPC   D2A 7974  11.352   5.002   6.167  0.0298 -0.0080  0.2013
    1DIPC   D3A 7975  11.543   5.247   5.840  0.0347  0.3607 -0.0356
    1DIPC   C4A 7976  11.763   5.154   5.463  0.2328  0.4580 -0.2360
    1DIPC   C1B 7977  11.549   5.772   6.194 -0.0198 -0.0741 -0.3914
    1DIPC   D2B 7978  11.884   5.576   5.948 -0.2277  0.1338 -0.0287
    1DIPC   D3B 7979  12.209   5.619   5.984 -0.3348 -0.2176 -0.1036
    1DIPC   C4B 7980  12.435   5.593   5.689  0.2463  0.1277  0.0995
    1DIPC   NC3 7981   5.555   5.384   7.313  0.0008  0.1857  0.0737
    1DIPC   PO4 7982   5.831   5.245   7.003 -0.1447  0.0778 -0.0513
    1DIPC   GL1 7983   5.964   5.395   6.653  0.0619 -0.1539 -0.1695
    1DIPC   GL2 7984   5.783   5.265   6.378 -0.2268 -0.0663 -0.1074
    1DIPC   C1A 7985   6.303   5.457   6.358 -0.0018  0.0875  0.1483
    1DIPC   D2A 7986   6.132   5.692   5.963  0.0616 -0.2652 -0.0259
    1DIPC   D3A 7987   6.267   5.649   5.590  0.1957  0.0767 -0.0563
    1DIPC   C4A 7988   6.038   5.943   5.337  0.0251  0.1889 -0.0633
    1DIPC   C1B 7989   6.133   4.971   6.323 -0.1090 -0.3168  0.1188
    1DIPC   D2B 7990   6.515   5.014   6.538 -0.0894  0.3540 -0.0649
    1DIPC   D3B 7991   6.608   5.153   6.120 -0.0603 -0.4186 -0.0827
    1DIPC   C4B 7992   6.319   5.202   5.876 -0.1145 -0.1245 -0.2882
    1DIPC   NC3 7993  13.731   4.225   7.141  0.0828 -0.1647 -0.1963
    1DIPC   PO4 7994  13.897   4.641   7.336  0.0276  0.1250  0.0888
    1DIPC   GL1 7995  13.958   4.600   6.854  0.0446 -0.0812  0.2022
    1DIPC   GL2 7996  13.716   4.454   6.643  0.5726  0.1623  0.4146
    1DIPC   C1A 7997  14.127   4.476   6.445  0.3131 -0.3136  0.0451
    1DIPC   D2A 7998  14.136   4.368   6.025  0.1378  0.0345 -0.1116
    1DIPC   D3A 7999  14.518   4.239   5.809  0.1399 -0.0315 -0.2121
    1DIPC   C4A 8000  14.675   3.866   5.879  0.2583  0.2050 -0.0688
    1DIPC   C1B 8001  13.655   4.645   6.297  0.2101 -0.2951 -0.2290
    1DIPC   D2B 8002  13.366   4.588   5.982 -0.0292  0.1875  0.4343
    1DIPC   D3B 8003  13.681   4.390   5.870 -0.3089 -0.1770  0.0614
    1DIPC   C4B 8004  13.822   3.983   6.003 -0.1200 -0.2107  0.3086
    1DIPC   NC3 8005   4.425  27.361   6.979 -0.1685 -0.2137  0.1255
    1DIPC   PO4 8006   4.634  27.164   6.630 -0.1633  0.0658  0.3107
    1DIPC   GL1 8007   4.578  27.155   6.193 -0.3278 -0.0186 -0.1227
    1DIPC   GL2 8008   4.589  26.934   5.895 -0.0077 -0.0030 -0.1400
    1DIPC   C1A 8009   4.629  27.383   5.726  0.0159  0.3245 -0.2702
    1DIPC   D2A 8010   4.527  27.789   5.593  0.0686 -0.0714  0.0308
    1DIPC   D3A 8011   4.735  27.562   5.234  0.0218  0.0742  0.0347
    1DIPC   C4A 8012   4.665  27.769   4.795 -0.0144 -0.2716  0.1708
    1DIPC   C1B 8013   4.262  27.072   5.713  0.2692  0.2249  0.3086
    1DIPC   D2B 8014   4.154  27.400   5.475 -0.1460 -0.5988 -0.0355
    1DIPC   D3B 8015   3.872  27.490   5.227  0.0612 -0.0049  0.0130
    1DIPC   C4B 8016   3.819  27.152   4.998 -0.1838 -0.1503  0.0306
    1DIPC   NC3 8017   4.938  20.538   6.388 -0.1200  0.1762 -0.1316
    1DIPC   PO4 8018   4.744  20.294   6.042 -0.1006 -0.0166 -0.3066
    1DIPC   GL1 8019   4.763  20.165   5.667  0.2327  0.0420 -0.0910
    1DIPC   GL2 8020   5.091  20.204   5.658  0.1173  0.1622 -0.3546
    1DIPC   C1A 8021   4.666  20.294   5.276 -0.2896 -0.2755  0.0893
    1DIPC   D2A 8022   4.515  20.565   5.023  0.2009 -0.0412 -0.2205
    1DIPC   D3A 8023   4.792  20.364   4.776 -0.3588 -0.1157  0.0801
    1DIPC   C4A 8024   4.754  20.081   4.505  0.0064  0.0065  0.2524
    1DIPC   C1B 8025   5.148  20.243   5.257 -0.1437 -0.0995  0.2735
    1DIPC   D2B 8026   5.218  20.496   4.988 -0.0713  0.3192 -0.0564
    1DIPC   D3B 8027   4.914  20.836   4.892 -0.0590  0.0705 -0.1361
    1DIPC   C4B 8028   5.136  20.875   4.540  0.2951  0.0867 -0.1895
    1DIPC   NC3 8029  14.861  24.090   6.805  0.0320  0.1145  0.0863
    1DIPC   PO4 8030  14.770  23.607   6.655  0.3254  0.1719  0.2579
    1DIPC   GL1 8031  14.696  23.868   6.432 -0.0004 -0.0051  0.2442
    1DIPC   GL2 8032  14.654  23.749   6.121  0.0501  0.0280 -0.0874
    1DIPC   C1A 8033  14.741  24.225   6.107  0.3596  0.2744  0.0816
    1DIPC   D2A 8034  15.098  24.185   5.719 -0.0901  0.1189  0.0797
    1DIPC   D3A 8035  15.058  23.789   5.877 -0.1596  0.0657  0.1516
    1DIPC   C4A 8036  14.825  23.448   5.729  0.2177  0.0792 -0.2711
    1DIPC   C1B 8037  14.651  23.962   5.710  0.1123 -0.1738 -0.0457
    1DIPC   D2B 8038  14.659  24.362   5.581 -0.1919 -0.3480 -0.2405
    1DIPC   D3B 8039  14.246  24.510   5.678  0.0651  0.3470  0.0609
    1DIPC   C4B 8040  13.969  24.929   5.749  0.2902 -0.0608  0.0374
    1DIPC   NC3 8041  10.764  23.308   6.294 -0.0941 -0.2514 -0.0505
    1DIPC   PO4 8042  10.370  23.239   6.152  0.3259 -0.1620  0.3305
    1DIPC   GL1 8043  10.283  23.195   5.752  0.2514 -0.0644  0.2174
    1DIPC   GL2 8044  10.127  23.265   5.592  0.0818  0.1114  0.0652
    1DIPC   C1A 8045  10.360  22.862   5.333 -0.0852  0.3136  0.2336
    1DIPC   D2A 8046  10.444  22.399   5.229  0.2898  0.1276  0.0124
    1DIPC   D3A 8047  10.808  22.198   5.429 -0.2875 -0.0031  0.0175
    1DIPC   C4A 8048  10.896  21.893   5.228 -0.3054  0.2833 -0.3256
    1DIPC   C1B 8049  10.048  23.204   5.222 -0.1326 -0.1075  0.0291
    1DIPC   D2B 8050   9.681  23.085   5.031  0.0373 -0.1236 -0.3804
    1DIPC   D3B 8051   9.901  23.333   4.738  0.0033 -0.2439  0.1783
    1DIPC   C4B 8052  10.039  23.052   4.395  0.0210 -0.0128 -0.0172
    1DIPC   NC3 8053   3.930   7.095   5.983 -0.2849 -0.0224  0.0224
    1DIPC   PO4 8054   4.273   7.375   6.024  0.1283 -0.2043 -0.1144
    1DIPC   GL1 8055   4.294   7.499   5.594 -0.0494 -0.1796 -0.1818
    1DIPC   GL2 8056   3.984   7.554   5.517 -0.2494 -0.2191 -0.1052
    1DIPC   C1A 8057   4.534   7.649   5.257 -0.2120 -0.0493  0.1050
    1DIPC   D2A 8058   4.852   7.519   4.939  0.0533  0.1149 -0.1147
    1DIPC   D3A 8059   5.038   7.535   5.313  0.3206  0.0251  0.0874
    1DIPC   C4A 8060   5.267   7.797   5.478 -0.3851  0.3742  0.0176
    1DIPC   C1B 8061   3.809   7.875   5.263  0.2285  0.0398 -0.1009
    1DIPC   D2B 8062   3.810   7.882   4.841  0.0303  0.3791  0.1406
    1DIPC   D3B 8063   3.914   7.515   4.607 -0.0809  0.0866 -0.0980
    1DIPC   C4B 8064   4.385   7.433   4.746  0.3407  0.1410  0.0723
    1DIPC   NC3 8065   2.544   5.835   5.584  0.0658 -0.0434 -0.1177
    1DIPC   PO4 8066   2.444   5.476   5.834  0.1880  0.3645  0.1432
    1DIPC   GL1 8067   2.255   5.394   5.404 -0.0829 -0.0890  0.3690
    1DIPC   GL2 8068   2.287   5.083   5.141 -0.0201 -0.1898  0.0622
    1DIPC   C1A 8069   2.336   5.602   4.977  0.0277  0.0091 -0.1227
    1DIPC   D2A 8070   2.607   5.912   4.889 -0.0489  0.1739  0.0680
    1DIPC   D3A 8071   2.821   6.081   5.293  0.1913  0.1691 -0.0494
    1DIPC   C4A 8072   2.980   6.417   5.396  0.0641  0.1455 -0.0407
    1DIPC   C1B 8073   2.380   5.077   4.624 -0.2297 -0.0072 -0.1545
    1DIPC   D2B 8074   2.349   5.290   4.227  0.0930 -0.4616  0.1555
    1DIPC   D3B 8075   2.572   5.513   3.859 -0.0662 -0.1526  0.1458
    1DIPC   C4B 8076   2.390   5.488   3.552 -0.1814 -0.2587 -0.2016
    1DIPC   NC3 8077  24.543  28.626   6.416 -0.1080 -0.3092  0.2565
    1DIPC   PO4 8078  24.546  29.061   6.444  0.1472  0.3643  0.1081
    1DIPC   GL1 8079  24.255  29.001   6.099 -0.3985 -0.2410  0.0533
    1DIPC   GL2 8080  24.208  29.328   5.960  0.1952  0.2617 -0.1642
    1DIPC   C1A 8081  24.157  28.833   5.676 -0.1334  0.2248  0.4867
    1DIPC   D2A 8082  24.213  28.481   5.420 -0.1825 -0.2599 -0.1940
    1DIPC   D3A 8083  23.902  28.605   5.251  0.1354 -0.0520 -0.1770
    1DIPC   C4A 8084  23.685  28.726   4.841 -0.1172 -0.2995  0.0397
    1DIPC   C1B 8085  24.347  29.637   5.631  0.1004  0.2704  0.0396
    1DIPC   D2B 8086  24.478  29.738   5.168 -0.0358 -0.0388  0.0247
    1DIPC   D3B 8087  24.032  29.769   5.199  0.0056  0.2060 -0.0648
    1DIPC   C4B 8088  23.658  29.593   5.367 -0.1780 -0.3072  0.1026
    1DIPC   NC3 8089   3.420   3.003   7.122  0.2571 -0.0631  0.1162
    1DIPC   PO4 8090   3.294   2.729   6.755 -0.0081  0.3696 -0.0121
    1DIPC   GL1 8091   3.363   2.735   6.230  0.1342  0.1550 -0.1292
    1DIPC   GL2 8092   3.089   2.888   6.115 -0.0518  0.1008  0.0247
    1DIPC   C1A 8093   3.380   2.559   5.820 -0.1795 -0.0341 -0.0361
    1DIPC   D2A 8094   3.718   2.244   5.579  0.0948 -0.0357 -0.0240
    1DIPC   D3A 8095   3.492   2.419   5.178  0.1194 -0.1451 -0.1440
    1DIPC   C4A 8096   3.742   2.415   4.829  0.0967 -0.1570 -0.0645
    1DIPC   C1B 8097   3.285   3.086   5.708  0.1509  0.0500 -0.2543
    1DIPC   D2B 8098   3.017   3.364   5.407 -0.0419 -0.2353 -0.0867
    1DIPC   D3B 8099   2.686   3.159   5.373  0.0673  0.2799  0.3592
    1DIPC   C4B 8100   2.305   3.309   5.663 -0.3753  0.1689  0.0836
    1DIPC   NC3 8101   8.956   9.701   7.494  0.4066 -0.0322  0.3609
    1DIPC   PO4 8102   8.798   9.859   7.185 -0.0985  0.1627 -0.2654
    1DIPC   GL1 8103   8.696   9.754   6.749  0.2801  0.0394 -0.2599
    1DIPC   GL2 8104   8.937   9.762   6.530  0.2866 -0.0109 -0.0021
    1DIPC   C1A 8105   8.305   9.675   6.398 -0.0772  0.0746  0.0503
    1DIPC   D2A 8106   7.870   9.597   6.392 -0.2372 -0.2670 -0.1121
    1DIPC   D3A 8107   7.909   9.706   5.987 -0.0178  0.0459  0.3240
    1DIPC   C4A 8108   7.594   9.733   5.739  0.2261  0.0414  0.3081
    1DIPC   C1B 8109   8.827   9.452   6.132  0.1072 -0.0381 -0.0682
    1DIPC   D2B 8110   9.086   9.451   5.750 -0.1440 -0.1255 -0.0198
    1DIPC   D3B 8111   9.318   9.725   5.894  0.0088  0.0276 -0.2068
    1DIPC   C4B 8112   9.389   9.647   6.418  0.3763 -0.0015  0.0617
    1DIPC   NC3 8113  16.261   4.115   7.094  0.0191  0.0700  0.3216
    1DIPC   PO4 8114  16.245   3.699   7.192 -0.2503  0.0601 -0.2453
    1DIPC   GL1 8115  16.199   3.798   6.755 -0.0383 -0.1081 -0.0771
    1DIPC   GL2 8116  16.155   4.072   6.608 -0.2743 -0.2510 -0.2403
    1DIPC   C1A 8117  15.844   3.842   6.413 -0.1294  0.0840 -0.0473
    1DIPC   D2A 8118  15.578   4.094   6.151 -0.0431  0.2514  0.3414
    1DIPC   D3A 8119  15.791   4.072   5.806 -0.3101  0.0592  0.1360
    1DIPC   C4A 8120  15.891   3.885   5.448  0.1361 -0.1326  0.3138
    1DIPC   C1B 8121  16.109   4.277   6.292  0.1126 -0.0385  0.2323
    1DIPC   D2B 8122  16.266   4.445   5.910 -0.1299  0.0555  0.0363
    1DIPC   D3B 8123  16.715   4.365   5.795 -0.0578  0.0359  0.1643
    1DIPC   C4B 8124  16.925   4.751   5.946 -0.2592 -0.0650 -0.0510
    1DIPC   NC3 8125  25.377  19.969   6.532  0.0474  0.2814  0.3515
    1DIPC   PO4 8126  25.216  19.628   6.257  0.2067 -0.2235  0.0961
    1DIPC   GL1 8127  25.447  20.013   5.999 -0.0804  0.0967  0.2110
    1DIPC   GL2 8128  25.724  19.862   6.209 -0.0830  0.2020 -0.1564
    1DIPC   C1A 8129  25.594  20.421   6.017  0.0389 -0.0818 -0.1734
    1DIPC   D2A 8130  25.810  20.866   6.180  0.0794 -0.0903  0.1473
    1DIPC   D3A 8131  25.660  21.200   6.340  0.2042 -0.0302 -0.1050
    1DIPC   C4A 8132  25.916  21.576   6.283  0.2724  0.2334  0.0912
    1DIPC   C1B 8133  25.910  19.994   5.784 -0.1077  0.1657  0.0115
    1DIPC   D2B 8134  25.991  20.138   5.285  0.3837  0.0028  0.0333
    1DIPC   D3B 8135  26.307  20.431   5.391  0.2463 -0.1053 -0.2188
    1DIPC   C4B 8136  26.670  20.580   5.047  0.2407 -0.0920 -0.1120
    1DIPC   NC3 8137  12.557  26.303   7.785 -0.0113  0.1015 -0.0348
    1DIPC   PO4 8138  12.591  25.950   7.541  0.0706 -0.0344  0.2442
    1DIPC   GL1 8139  12.814  26.063   7.163 -0.2520  0.1756  0.1939
    1DIPC   GL2 8140  12.902  26.453   7.082  0.0878 -0.0851  0.2221
    1DIPC   C1A 8141  13.123  26.147   6.790  0.3979 -0.3330  0.0105
    1DIPC   D2A 8142  13.150  26.028   6.432  0.0337  0.2181 -0.0643
    1DIPC   D3A 8143  13.284  25.940   6.038 -0.0572 -0.4259  0.0929
    1DIPC   C4A 8144  13.135  26.224   5.720 -0.0372 -0.1774  0.1118
    1DIPC   C1B 8145  12.869  26.897   7.086  0.0168  0.1112  0.3307
    1DIPC   D2B 8146  12.875  27.341   6.990  0.0356 -0.1902 -0.0127
    1DIPC   D3B 8147  13.181  27.238   6.735 -0.0592  0.2305 -0.3104
    1DIPC   C4B 8148  13.167  27.424   6.321  0.0886 -0.1429  0.1905
    1DIPC   NC3 8149  20.938  27.270   7.109 -0.1898 -0.0061  0.3022
    1DIPC   PO4 8150  20.603  27.560   6.778  0.1287  0.2638  0.2218
    1DIPC   GL1 8151  20.725  27.665   6.380 -0.2943  0.0998  0.0447
    1DIPC   GL2 8152  20.948  27.379   6.290 -0.0606  0.0151  0.0019
    1DIPC   C1A 8153  20.716  27.545   5.872 -0.1777 -0.4318 -0.0251
    1DIPC   D2A 8154  20.735  27.575   5.457  0.1076 -0.1997 -0.0644
    1DIPC   D3A 8155  20.745  27.891   5.202 -0.2190 -0.1261  0.0267
    1DIPC   C4A 8156  21.072  28.210   5.103 -0.4266 -0.2284  0.0722
    1DIPC   C1B 8157  21.124  27.103   6.028 -0.0054 -0.1392 -0.0336
    1DIPC   D2B 8158  21.461  27.296   5.837 -0.0204 -0.0363 -0.3286
    1DIPC   D3B 8159  21.200  27.232   5.486  0.1474 -0.2265  0.1945
    1DIPC   C4B 8160  20.786  27.089   5.636 -0.0265  0.1399 -0.0882
    1DIPC   NC3 8161  18.505  21.606   7.053  0.0145 -0.0893  0.1320
    1DIPC   PO4 8162  19.013  21.703   6.812  0.2318  0.1745  0.3246
    1DIPC   GL1 8163  19.039  21.863   6.388  0.0732  0.1458 -0.3964
    1DIPC   GL2 8164  18.809  21.737   6.273 -0.1299 -0.2035 -0.1619
    1DIPC   C1A 8165  19.283  21.856   6.077 -0.3192 -0.1264  0.1014
    1DIPC   D2A 8166  19.662  21.849   5.852 -0.2323  0.0410 -0.2683
    1DIPC   D3A 8167  19.378  21.703   5.590  0.1879 -0.1198  0.2913
    1DIPC   C4A 8168  19.470  21.238   5.614 -0.2996 -0.2166  0.1438
    1DIPC   C1B 8169  18.932  21.538   5.869 -0.2024 -0.0266 -0.1225
    1DIPC   D2B 8170  18.942  21.465   5.424 -0.1949  0.1725 -0.0460
    1DIPC   D3B 8171  18.939  21.568   4.993 -0.4853 -0.0943  0.0604
    1DIPC   C4B 8172  18.629  21.593   4.638 -0.0274  0.0816  0.1831
    1DIPC   NC3 8173  25.764  15.137   6.103 -0.0812 -0.0852  0.1061
    1DIPC   PO4 8174  25.911  15.486   6.207  0.1577 -0.5334 -0.0425
    1DIPC   GL1 8175  25.893  15.572   5.786  0.0568 -0.0415 -0.2055
    1DIPC   GL2 8176  25.720  15.422   5.603  0.3838 -0.0988 -0.0090
    1DIPC   C1A 8177  26.180  15.597   5.489 -0.1754 -0.0435 -0.1340
    1DIPC   D2A 8178  26.285  15.873   5.143  0.1642  0.2867 -0.1864
    1DIPC   D3A 8179  26.581  15.998   4.799  0.1069  0.0556  0.1880
    1DIPC   C4A 8180  26.900  15.716   4.663 -0.0120 -0.2301 -0.0780
    1DIPC   C1B 8181  25.736  15.569   5.179  0.0425 -0.0248  0.3869
    1DIPC   D2B 8182  25.972  15.845   4.800  0.2509  0.1209 -0.1072
    1DIPC   D3B 8183  26.170  15.454   4.804 -0.1450  0.0187 -0.0842
    1DIPC   C4B 8184  25.836  15.183   4.847 -0.2277  0.2655  0.1225
    1DIPC   NC3 8185  27.928   7.184   6.084 -0.2466  0.2720  0.0627
    1DIPC   PO4 8186  28.115   6.828   5.845 -0.1371  0.0136  0.1706
    1DIPC   GL1 8187  27.784   6.946   5.548 -0.0243 -0.1088 -0.0067
    1DIPC   GL2 8188  27.592   6.780   5.436 -0.3576  0.0299 -0.0178
    1DIPC   C1A 8189  27.650   7.290   5.314 -0.1724  0.1314  0.0950
    1DIPC   D2A 8190  27.560   7.371   4.819  0.0667  0.3208  0.3172
    1DIPC   D3A 8191  27.958   7.138   4.776  0.1032 -0.0392 -0.2152
    1DIPC   C4A 8192  28.176   7.012   5.166 -0.0940 -0.2368 -0.1102
    1DIPC   C1B 8193  27.597   6.782   4.972  0.2471  0.3113 -0.2447
    1DIPC   D2B 8194  27.165   6.902   4.655 -0.3471 -0.2937 -0.3496
    1DIPC   D3B 8195  27.345   6.471   4.608 -0.4277 -0.2322  0.1420
    1DIPC   C4B 8196  27.172   6.079   4.337  0.2652 -0.2406  0.1543
    1DIPC   NC3 8197   2.039   8.920   6.497 -0.1318  0.0229  0.3204
    1DIPC   PO4 8198   1.654   8.965   6.339  0.0547 -0.0006  0.2039
    1DIPC   GL1 8199   1.719   9.044   5.907  0.2410 -0.0363 -0.3136
    1DIPC   GL2 8200   1.695   9.283   5.611  0.0166  0.0634  0.3203
    1DIPC   C1A 8201   1.724   8.778   5.484  0.0104 -0.1217  0.2149
    1DIPC   D2A 8202   1.814   8.784   5.052 -0.3923  0.0224  0.0220
    1DIPC   D3A 8203   1.574   8.413   5.176 -0.1137 -0.2011 -0.4360
    1DIPC   C4A 8204   1.289   8.295   5.186 -0.1076 -0.2575 -0.0089
    1DIPC   C1B 8205   1.517   9.166   5.185  0.0871 -0.1591 -0.3219
    1DIPC   D2B 8206   1.377   8.866   4.945  0.0562  0.2047 -0.2278
    1DIPC   D3B 8207   1.449   8.541   4.735 -0.1309 -0.3194  0.2909
    1DIPC   C4B 8208   1.834   8.361   4.756 -0.3476  0.1108  0.3292
    1DIPC   NC3 8209   5.954   6.018   6.293  0.0200 -0.0269  0.0171
    1DIPC   PO4 8210   6.151   6.350   6.632  0.0009  0.2129 -0.2445
    1DIPC   GL1 8211   6.474   6.250   6.380  0.1880 -0.1379 -0.1039
    1DIPC   GL2 8212   6.793   6.368   6.345 -0.3970  0.0052 -0.0459
    1DIPC   C1A 8213   6.588   5.894   6.076  0.0029  0.1397  0.1939
    1DIPC   D2A 8214   6.900   5.592   6.052  0.0129 -0.0519  0.1566
    1DIPC   D3A 8215   6.776   5.378   5.685  0.1063  0.0782 -0.1111
    1DIPC   C4A 8216   6.541   5.115   5.412 -0.1538 -0.2409  0.0093
    1DIPC   C1B 8217   6.706   6.440   5.877 -0.0348 -0.5970 -0.0597
    1DIPC   D2B 8218   6.787   6.690   5.529 -0.2117 -0.0102 -0.1416
    1DIPC   D3B 8219   7.161   6.999   5.463  0.3244 -0.2896 -0.3293
    1DIPC   C4B 8220   7.319   7.035   5.783  0.0175 -0.1397  0.0132
    1DIPC   NC3 8221  22.584   6.385   6.875 -0.1009  0.0502 -0.3395
    1DIPC   PO4 8222  22.118   6.358   6.862 -0.0389  0.0211  0.0746
    1DIPC   GL1 8223  22.047   6.404   6.467  0.0974 -0.4846 -0.1411
    1DIPC   GL2 8224  22.293   6.632   6.359  0.0345 -0.1807  0.2470
    1DIPC   C1A 8225  21.957   6.538   6.009 -0.1655  0.1058  0.0066
    1DIPC   D2A 8226  21.783   6.538   5.673 -0.0920  0.4557 -0.0808
    1DIPC   D3A 8227  21.912   6.834   5.539  0.2211  0.1040 -0.4578
    1DIPC   C4A 8228  22.085   6.856   5.126 -0.2552 -0.0153 -0.1055
    1DIPC   C1B 8229  22.545   6.629   6.120  0.3480  0.4119  0.0283
    1DIPC   D2B 8230  22.383   6.605   5.687 -0.2108 -0.1447  0.3645
    1DIPC   D3B 8231  22.625   6.711   5.342  0.1046  0.1506 -0.1559
    1DIPC   C4B 8232  23.040   6.604   5.242 -0.0241  0.0933 -0.2208
    1DIPC   NC3 8233  10.748   0.159   7.661 -0.0791 -0.0753 -0.0002
    1DIPC   PO4 8234  10.361  -0.116   7.635 -0.0479 -0.1119  0.1798
    1DIPC   GL1 8235  10.270  -0.253   7.168 -0.2336  0.1803 -0.0341
    1DIPC   GL2 8236  10.286  -0.017   6.961  0.0850 -0.0779  0.1399
    1DIPC   C1A 8237  10.369  -0.587   6.794 -0.1448  0.0226 -0.0595
    1DIPC   D2A 8238  10.263  -0.833   6.458  0.0064  0.0825  0.0447
    1DIPC   D3A 8239   9.855  -0.778   6.653 -0.2440 -0.1370  0.0122
    1DIPC   C4A 8240   9.584  -0.440   6.470 -0.1066 -0.0246 -0.1820
    1DIPC   C1B 8241  10.552   0.002   6.627  0.0997  0.2447 -0.2782
    1DIPC   D2B 8242  10.686   0.050   6.235 -0.2031 -0.0162 -0.0344
    1DIPC   D3B 8243  10.589   0.429   6.192 -0.3033  0.0864 -0.3805
    1DIPC   C4B 8244  10.442   0.392   5.827 -0.1541  0.0517 -0.2275
    1DIPC   NC3 8245  20.749   1.620   6.614  0.1714 -0.1327 -0.2378
    1DIPC   PO4 8246  20.606   1.972   6.346  0.0706 -0.0943  0.2048
    1DIPC   GL1 8247  20.700   2.082   6.010 -0.0560 -0.2662  0.1790
    1DIPC   GL2 8248  21.015   2.064   5.914 -0.0045  0.1355  0.2458
    1DIPC   C1A 8249  20.534   2.075   5.623 -0.1394 -0.0397  0.1093
    1DIPC   D2A 8250  20.647   2.010   5.271 -0.1023 -0.1363  0.0510
    1DIPC   D3A 8251  20.265   1.691   5.412  0.0687 -0.0038 -0.1918
    1DIPC   C4A 8252  20.254   1.710   5.888  0.0828 -0.1513 -0.0587
    1DIPC   C1B 8253  20.995   2.262   5.507 -0.0992 -0.0429  0.0120
    1DIPC   D2B 8254  21.048   2.217   5.033 -0.0441 -0.1370  0.1254
    1DIPC   D3B 8255  21.011   2.636   4.841  0.0156 -0.1035 -0.1718
    1DIPC   C4B 8256  21.064   2.753   4.401 -0.4421  0.1268 -0.0133
    1DIPC   NC3 8257   4.074   3.922   6.182 -0.0475 -0.2941 -0.0556
    1DIPC   PO4 8258   4.551   4.081   6.165 -0.0312 -0.2990  0.0126
    1DIPC   GL1 8259   4.765   3.985   5.762 -0.1852 -0.1351 -0.0232
    1DIPC   GL2 8260   4.618   3.714   5.759  0.4517 -0.1561 -0.1083
    1DIPC   C1A 8261   4.921   3.991   5.244  0.1152  0.2011  0.0555
    1DIPC   D2A 8262   4.815   4.241   4.919  0.1624 -0.2309 -0.1616
    1DIPC   D3A 8263   4.823   4.627   4.951 -0.1400 -0.2902  0.1250
    1DIPC   C4A 8264   4.472   4.780   5.226  0.3443 -0.0967  0.0223
    1DIPC   C1B 8265   4.261   3.908   5.506 -0.2713  0.0780 -0.1688
    1DIPC   D2B 8266   4.014   3.591   5.339  0.0721  0.0731 -0.0776
    1DIPC   D3B 8267   4.274   3.251   5.329  0.2380  0.0004 -0.0005
    1DIPC   C4B 8268   4.510   3.245   5.697  0.0512 -0.1036  0.1772
    1DIPC   NC3 8269   9.828  21.569   6.234  0.1737 -0.1334 -0.0505
    1DIPC   PO4 8270   9.809  21.886   5.988 -0.2218 -0.0076 -0.2105
    1DIPC   GL1 8271   9.891  21.876   5.645 -0.1184  0.3883 -0.2425
    1DIPC   GL2 8272   9.945  22.214   5.498  0.1183  0.2206 -0.2503
    1DIPC   C1A 8273   9.914  21.691   5.167 -0.1881 -0.0085 -0.0297
    1DIPC   D2A 8274   9.828  21.516   4.748 -0.1512  0.0307  0.2672
    1DIPC   D3A 8275  10.153  21.825   4.737  0.2260  0.1722  0.0923
    1DIPC   C4A 8276  10.133  22.158   4.954 -0.1463  0.1115 -0.1553
    1DIPC   C1B 8277   9.924  22.569   5.188 -0.3641  0.1265  0.2685
    1DIPC   D2B 8278   9.879  22.745   4.721  0.4209  0.0604 -0.1316
    1DIPC   D3B 8279   9.564  23.102   4.488 -0.1734 -0.1762  0.2756
    1DIPC   C4B 8280   9.189  23.352   4.379  0.2388  0.0425  0.1680
    1DIPC   NC3 8281   2.419   6.776   5.973  0.3492 -0.1395  0.2595
    1DIPC   PO4 8282   2.273   6.388   5.784 -0.0962  0.0049 -0.2742
    1DIPC   GL1 8283   2.466   6.363   5.449 -0.0185 -0.0596 -0.0023
    1DIPC   GL2 8284   2.237   6.098   5.242  0.0214 -0.0716  0.1676
    1DIPC   C1A 8285   2.680   6.400   4.924 -0.1416 -0.0167 -0.1170
    1DIPC   D2A 8286   2.610   6.260   4.548  0.1249  0.1008 -0.1435
    1DIPC   D3A 8287   3.031   6.548   4.388 -0.2154  0.3636  0.0001
    1DIPC   C4A 8288   3.496   6.654   4.485  0.0776 -0.4295 -0.2498
    1DIPC   C1B 8289   2.193   6.198   4.848 -0.1479 -0.0142 -0.0816
    1DIPC   D2B 8290   2.078   6.306   4.481 -0.1492  0.3170  0.3270
    1DIPC   D3B 8291   2.229   6.391   4.077  0.3324  0.0080  0.0841
    1DIPC   C4B 8292   2.435   6.727   3.867  0.0824 -0.4742  0.2232
    1DIPC   NC3 8293  23.426  11.386   6.858  0.2845 -0.0624 -0.0183
    1DIPC   PO4 8294  23.398  11.098   6.521  0.1766 -0.3102  0.0604
    1DIPC   GL1 8295  23.154  11.194   6.135  0.0285 -0.2480 -0.0375
    1DIPC   GL2 8296  23.326  11.169   5.917  0.2051  0.0346 -0.0476
    1DIPC   C1A 8297  22.868  11.120   5.753  0.2926  0.0282  0.0177
    1DIPC   D2A 8298  22.468  11.121   5.636  0.0286 -0.2064 -0.1471
    1DIPC   D3A 8299  22.520  10.699   5.494 -0.1031 -0.0407 -0.0577
    1DIPC   C4A 8300  22.875  10.620   5.729  0.3073  0.0982  0.1223
    1DIPC   C1B 8301  23.397  10.684   5.789 -0.0195 -0.1965 -0.1034
    1DIPC   D2B 8302  23.254  10.288   5.579  0.0322  0.1443  0.2186
    1DIPC   D3B 8303  23.644  10.233   5.462  0.1758  0.2496  0.1524
    1DIPC   C4B 8304  23.627   9.978   5.105  0.1046 -0.2543  0.2539
    1DIPC   NC3 8305  26.769   2.681   6.525  0.0873  0.0607 -0.0485
    1DIPC   PO4 8306  27.005   2.423   6.229  0.2140  0.2084 -0.1368
    1DIPC   GL1 8307  27.384   2.429   6.048  0.0029  0.0608 -0.1881
    1DIPC   GL2 8308  27.609   2.580   6.161  0.0493 -0.1161 -0.1500
    1DIPC   C1A 8309  27.716   2.513   5.659  0.1370 -0.0262 -0.1747
    1DIPC   D2A 8310  27.937   2.356   5.445 -0.2048  0.0614  0.3650
    1DIPC   D3A 8311  27.967   2.000   5.705 -0.1678  0.0757  0.4755
    1DIPC   C4A 8312  27.803   2.048   6.107 -0.1152  0.1190  0.2161
    1DIPC   C1B 8313  27.575   2.933   5.821 -0.4622 -0.2771 -0.1617
    1DIPC   D2B 8314  27.301   3.102   5.550  0.3381 -0.1460  0.0528
    1DIPC   D3B 8315  27.211   2.637   5.594 -0.0312  0.1778  0.0155
    1DIPC   C4B 8316  27.424   2.451   5.225  0.1645  0.2447  0.0251
    1DIPC   NC3 8317  14.030  27.859   8.040 -0.0974  0.1310  0.2181
    1DIPC   PO4 8318  13.793  27.935   7.687  0.3373 -0.2157  0.2649
    1DIPC   GL1 8319  14.031  27.900   7.272  0.1845 -0.0304 -0.0248
    1DIPC   GL2 8320  14.028  28.166   7.150  0.1384 -0.1275 -0.0622
    1DIPC   C1A 8321  14.066  27.582   6.948  0.2063  0.2920 -0.1044
    1DIPC   D2A 8322  14.044  27.269   6.526  0.0795 -0.0599 -0.1455
    1DIPC   D3A 8323  14.167  27.293   6.054 -0.1207  0.1829  0.1266
    1DIPC   C4A 8324  13.976  27.523   5.728  0.0214  0.0138 -0.2330
    1DIPC   C1B 8325  13.856  28.403   6.803 -0.3062 -0.0789 -0.4463
    1DIPC   D2B 8326  13.977  28.742   6.669 -0.2856  0.2195 -0.2000
    1DIPC   D3B 8327  14.028  28.642   6.288 -0.0524  0.0167  0.1245
    1DIPC   C4B 8328  13.753  28.691   6.036 -0.3568 -0.4324 -0.3095
    1DIPC   NC3 8329   6.103   6.895   6.677 -0.1561 -0.0293  0.0983
    1DIPC   PO4 8330   5.754   6.473   6.408 -0.2253  0.1166 -0.0806
    1DIPC   GL1 8331   5.931   6.426   5.995 -0.1594  0.1359  0.2188
    1DIPC   GL2 8332   6.195   6.276   5.956  0.1014 -0.2034 -0.0756
    1DIPC   C1A 8333   6.282   6.753   5.782  0.2462 -0.1534 -0.2724
    1DIPC   D2A 8334   6.397   6.907   5.390  0.0596  0.4019 -0.0727
    1DIPC   D3A 8335   6.759   7.066   5.139  0.0371 -0.2752 -0.1140
    1DIPC   C4A 8336   6.707   7.222   4.715  0.2086  0.1391 -0.0476
    1DIPC   C1B 8337   6.283   6.294   5.556 -0.0202  0.0226  0.0354
    1DIPC   D2B 8338   6.584   6.382   5.203  0.4275 -0.0111  0.0404
    1DIPC   D3B 8339   6.429   5.970   5.039  0.0039 -0.0813  0.0533
    1DIPC   C4B 8340   5.999   6.015   4.730  0.2297  0.2788  0.1928
    1DIPC   NC3 8341  23.968   0.420   6.747 -0.1038 -0.0257  0.1977
    1DIPC   PO4 8342  23.519   0.451   6.611 -0.0512 -0.1258 -0.0418
    1DIPC   GL1 8343  23.503   0.550   6.155  0.0931  0.0289  0.2242
    1DIPC   GL2 8344  23.582   0.755   5.945 -0.0967 -0.1101 -0.2693
    1DIPC   C1A 8345  23.135   0.494   5.848 -0.1413 -0.3906 -0.1482
    1DIPC   D2A 8346  23.216   0.583   5.427  0.0897  0.1049  0.2273
    1DIPC   D3A 8347  22.869   0.652   5.128  0.2318  0.4602  0.0341
    1DIPC   C4A 8348  22.617   0.537   4.780 -0.3852 -0.0435  0.4883
    1DIPC   C1B 8349  23.951   0.571   5.703  0.0577 -0.1619  0.0486
    1DIPC   D2B 8350  24.268   0.787   5.655 -0.1054  0.0398  0.1723
    1DIPC   D3B 8351  24.737   0.599   5.605  0.1149  0.1314  0.0405
    1DIPC   C4B 8352  25.068   0.485   5.293  0.0188 -0.0155 -0.1378
    1DIPC   NC3 8353   1.869  28.551   6.462  0.0226 -0.1159 -0.0741
    1DIPC   PO4 8354   1.476  28.676   6.547  0.3171  0.0456 -0.1447
    1DIPC   GL1 8355   1.305  28.591   6.153 -0.1814  0.0962  0.0428
    1DIPC   GL2 8356   1.424  28.252   6.056 -0.3790  0.0224  0.0921
    1DIPC   C1A 8357   1.310  28.660   5.773 -0.1152  0.0739  0.0681
    1DIPC   D2A 8358   1.315  28.777   5.307 -0.2015 -0.0033  0.0354
    1DIPC   D3A 8359   1.551  28.617   5.056 -0.0731 -0.0703  0.3770
    1DIPC   C4A 8360   1.788  28.894   4.896  0.2450 -0.3497  0.0768
    1DIPC   C1B 8361   1.331  28.148   5.591 -0.1771  0.1222  0.2068
    1DIPC   D2B 8362   1.211  28.112   5.154  0.0426  0.0975  0.1199
    1DIPC   D3B 8363   1.184  28.405   4.846 -0.0857  0.1527 -0.0238
    1DIPC   C4B 8364   0.822  28.501   4.685  0.0767 -0.0931 -0.1403
    1DIPC   NC3 8365   0.668   7.354   5.926  0.0387 -0.3380 -0.1091
    1DIPC   PO4 8366   0.678   7.832   5.914 -0.1829 -0.2948 -0.1013
    1DIPC   GL1 8367   1.015   7.660   5.680  0.1319 -0.1310  0.3522
    1DIPC   GL2 8368   0.848   7.533   5.414 -0.1744  0.3985  0.1764
    1DIPC   C1A 8369   1.378   7.927   5.563 -0.2692  0.2040 -0.4367
    1DIPC   D2A 8370   1.662   7.849   5.311 -0.1321  0.3887  0.1893
    1DIPC   D3A 8371   1.575   7.964   4.927  0.1294 -0.1489 -0.3411
    1DIPC   C4A 8372   1.327   7.896   4.512 -0.2608  0.2848 -0.1941
    1DIPC   C1B 8373   1.039   7.308   5.146  0.2534 -0.2534  0.1003
    1DIPC   D2B 8374   1.293   6.920   5.021 -0.2384  0.2279  0.2085
    1DIPC   D3B 8375   1.413   7.019   4.547 -0.2349  0.1147  0.2174
    1DIPC   C4B 8376   1.438   6.794   4.305  0.1280  0.1866 -0.0834
    1DIPC   NC3 8377  19.598  25.373   6.714 -0.1363  0.0202 -0.2319
    1DIPC   PO4 8378  19.897  25.207   6.701 -0.0917 -0.3208 -0.1266
    1DIPC   GL1 8379  19.833  25.371   6.241  0.0701  0.0103  0.3486
    1DIPC   GL2 8380  19.761  25.705   6.170 -0.1338  0.0063 -0.0153
    1DIPC   C1A 8381  19.723  25.110   5.930  0.1242  0.2164 -0.2639
    1DIPC   D2A 8382  19.514  24.682   5.925  0.3660 -0.2097  0.0546
    1DIPC   D3A 8383  19.778  24.329   5.696  0.0651  0.3140 -0.2102
    1DIPC   C4A 8384  19.889  24.238   5.296 -0.2487 -0.1035  0.1583
    1DIPC   C1B 8385  20.102  25.753   5.956  0.1868 -0.0454  0.0143
    1DIPC   D2B 8386  20.262  25.641   5.571  0.1742 -0.1058  0.0918
    1DIPC   D3B 8387  20.043  25.236   5.566  0.2401  0.0164  0.1457
    1DIPC   C4B 8388  19.920  25.144   5.181 -0.0963  0.2192 -0.2781
    1DIPC   NC3 8389   2.814  25.583   6.681 -0.3226 -0.1481 -0.2018
    1DIPC   PO4 8390   2.755  25.227   6.303 -0.2749 -0.0920 -0.1306
    1DIPC   GL1 8391   2.857  24.978   5.964 -0.1681  0.1008  0.1472
    1DIPC   GL2 8392   2.559  24.976   5.846  0.0293 -0.1388 -0.1813
    1DIPC   C1A 8393   2.892  24.649   5.666 -0.1082  0.0168 -0.2036
    1DIPC   D2A 8394   3.065  24.323   5.373  0.2232  0.1516 -0.1395
    1DIPC   D3A 8395   2.807  24.291   4.975 -0.0266 -0.0106  0.2662
    1DIPC   C4A 8396   2.993  24.234   4.640  0.0109 -0.0587 -0.0247
    1DIPC   C1B 8397   2.816  25.140   5.511  0.0662  0.0183  0.0489
    1DIPC   D2B 8398   2.782  25.133   5.119  0.5007 -0.4436 -0.1988
    1DIPC   D3B 8399   2.353  25.130   5.326  0.0136  0.0462  0.3230
    1DIPC   C4B 8400   2.191  25.443   5.645  0.0971 -0.0862 -0.0024
    1DIPC   NC3 8401   2.336  25.577   6.481 -0.1372  0.0804  0.0504
    1DIPC   PO4 8402   2.193  26.023   6.286  0.1659 -0.4444  0.1071
    1DIPC   GL1 8403   2.047  26.126   5.880 -0.2143  0.0236 -0.0333
    1DIPC   GL2 8404   1.897  25.861   5.909 -0.0489 -0.0977 -0.0603
    1DIPC   C1A 8405   1.945  26.342   5.475 -0.2366  0.0707 -0.1375
    1DIPC   D2A 8406   2.093  26.471   5.042  0.5464  0.0698 -0.0590
    1DIPC   D3A 8407   2.110  26.793   5.338 -0.1071 -0.1780 -0.0767
    1DIPC   C4A 8408   2.039  26.765   5.771  0.2703  0.2749 -0.1301
    1DIPC   C1B 8409   1.837  25.791   5.509  0.0026  0.0797  0.0097
    1DIPC   D2B 8410   1.824  25.985   5.039 -0.2862  0.0208  0.3680
    1DIPC   D3B 8411   1.445  25.950   4.773 -0.0534 -0.1533 -0.3238
    1DIPC   C4B 8412   1.427  25.706   4.430  0.1173  0.1414 -0.0520
    1DIPC   NC3 8413   3.192   0.857   6.290  0.1476  0.1326  0.0696
    1DIPC   PO4 8414   3.296   1.232   6.415  0.1657  0.1780  0.2278
    1DIPC   GL1 8415   3.694   1.262   6.186  0.0023  0.0100  0.0802
    1DIPC   GL2 8416   3.879   1.580   6.300  0.0187  0.2031 -0.1307
    1DIPC   C1A 8417   3.904   0.966   5.916  0.0300  0.0844  0.1385
    1DIPC   D2A 8418   4.111   0.821   5.449 -0.0549 -0.2605 -0.3481
    1DIPC   D3A 8419   4.034   1.141   5.167 -0.1718  0.1434  0.3542
    1DIPC   C4A 8420   3.604   1.313   5.109  0.1614 -0.0661 -0.0645
    1DIPC   C1B 8421   4.206   1.510   6.004 -0.0239 -0.0707  0.0576
    1DIPC   D2B 8422   4.150   1.296   5.651 -0.0218 -0.0822 -0.1562
    1DIPC   D3B 8423   4.510   1.405   5.552 -0.2604 -0.2108 -0.1012
    1DIPC   C4B 8424   4.930   1.160   5.588  0.3637 -0.2708 -0.0130
    1DIPC   NC3 8425   4.339  16.681   6.019 -0.0084 -0.0858 -0.0808
    1DIPC   PO4 8426   4.649  16.473   5.955 -0.2215 -0.2422  0.1828
    1DIPC   GL1 8427   4.524  16.212   5.739  0.0299 -0.1507 -0.3749
    1DIPC   GL2 8428   4.349  16.245   5.466 -0.0880 -0.1190  0.1596
    1DIPC   C1A 8429   4.774  16.030   5.375  0.1037  0.1952  0.0832
    1DIPC   D2A 8430   4.992  15.649   5.157  0.0514  0.0269  0.0307
    1DIPC   D3A 8431   4.723  15.343   4.817 -0.1713 -0.0315  0.2963
    1DIPC   C4A 8432   4.769  15.348   4.309  0.1053  0.1036  0.1120
    1DIPC   C1B 8433   4.158  15.844   5.315  0.1498 -0.0851  0.1255
    1DIPC   D2B 8434   3.862  15.489   5.126  0.2539 -0.0233  0.2700
    1DIPC   D3B 8435   3.618  15.722   4.775 -0.1734  0.1084  0.0761
    1DIPC   C4B 8436   3.722  15.462   4.360 -0.0888  0.1124  0.1122
    1DIPC   NC3 8437  11.226   9.574   7.257 -0.1396 -0.3527 -0.1035
    1DIPC   PO4 8438  11.174   9.216   7.523  0.0305 -0.1514 -0.1965
    1DIPC   GL1 8439  11.503   9.128   7.135 -0.0466  0.1679  0.0340
    1DIPC   GL2 8440  11.296   9.290   6.838  0.1465  0.4067  0.0339
    1DIPC   C1A 8441  11.754   8.976   6.722 -0.2716  0.1292  0.0570
    1DIPC   D2A 8442  11.892   8.677   6.397 -0.0905 -0.2745  0.2650
    1DIPC   D3A 8443  12.219   8.806   6.172 -0.2730 -0.2808  0.0630
    1DIPC   C4A 8444  12.335   8.649   5.742 -0.0218  0.1074  0.0968
    1DIPC   C1B 8445  11.304   9.109   6.412 -0.0197 -0.0526  0.3726
    1DIPC   D2B 8446  11.573   9.090   6.125 -0.2850 -0.1762  0.4248
    1DIPC   D3B 8447  11.966   9.237   6.142  0.5167  0.0952 -0.1710
    1DIPC   C4B 8448  12.086   9.509   5.872 -0.0359  0.0924  0.0859
    1DIPC   NC3 8449  23.510  11.792   6.112  0.0177 -0.0676 -0.0232
    1DIPC   PO4 8450  23.661  12.209   5.904  0.0508 -0.0352  0.2483
    1DIPC   GL1 8451  23.556  11.940   5.550  0.0528  0.1029 -0.0877
    1DIPC   GL2 8452  23.625  12.159   5.216  0.1739  0.0420  0.0354
    1DIPC   C1A 8453  23.789  11.599   5.229  0.4388  0.2691  0.1520
    1DIPC   D2A 8454  23.631  11.406   4.817  0.0500  0.0611 -0.2512
    1DIPC   D3A 8455  23.425  11.807   4.916 -0.0512 -0.2048 -0.4412
    1DIPC   C4A 8456  23.094  11.982   4.829 -0.0834 -0.2254  0.0517
    1DIPC   C1B 8457  23.213  12.408   5.086  0.3121  0.1662  0.0125
    1DIPC   D2B 8458  22.876  12.572   5.238  0.1885 -0.2272 -0.0498
    1DIPC   D3B 8459  22.954  12.718   5.704  0.0578 -0.6460  0.0132
    1DIPC   C4B 8460  22.674  13.156   5.657 -0.4020 -0.1123 -0.1454
    1DIPC   NC3 8461   1.485  15.222   6.560  0.1139  0.1375  0.0501
    1DIPC   PO4 8462   1.737  15.056   6.166 -0.0109 -0.0843 -0.1904
    1DIPC   GL1 8463   1.788  15.375   5.791 -0.1179 -0.0387 -0.1650
    1DIPC   GL2 8464   1.753  15.197   5.641  0.1095  0.0869  0.0005
    1DIPC   C1A 8465   1.804  15.676   5.365 -0.2915 -0.1315  0.2058
    1DIPC   D2A 8466   1.721  15.739   4.908 -0.0754 -0.2939  0.2018
    1DIPC   D3A 8467   1.606  15.471   4.569 -0.1463 -0.0843 -0.2147
    1DIPC   C4A 8468   1.094  15.210   4.550  0.1642  0.0159 -0.0604
    1DIPC   C1B 8469   2.081  15.225   5.304 -0.0628 -0.0928  0.2588
    1DIPC   D2B 8470   2.099  15.352   4.933 -0.0284 -0.1325 -0.0204
    1DIPC   D3B 8471   2.299  15.287   4.501 -0.0538  0.1293 -0.1673
    1DIPC   C4B 8472   2.280  14.906   4.348 -0.0040  0.0197 -0.0339
    1DIPC   NC3 8473   8.513  25.521   7.017 -0.0528 -0.0961  0.0659
    1DIPC   PO4 8474   8.802  25.765   6.702  0.0417  0.1561 -0.1176
    1DIPC   GL1 8475   8.822  25.635   6.295 -0.1825 -0.0623 -0.0949
    1DIPC   GL2 8476   8.548  25.739   6.204  0.1576  0.1706  0.0261
    1DIPC   C1A 8477   8.853  25.708   5.838 -0.1602 -0.0902 -0.1168
    1DIPC   D2A 8478   8.634  25.822   5.505 -0.1555  0.0653  0.1360
    1DIPC   D3A 8479   8.959  25.682   5.256  0.3064 -0.1700 -0.1851
    1DIPC   C4A 8480   9.097  25.407   5.060 -0.2030 -0.0649  0.4094
    1DIPC   C1B 8481   8.284  25.728   5.856  0.0250  0.1403 -0.1515
    1DIPC   D2B 8482   8.129  25.928   5.526 -0.2802 -0.2345 -0.1384
    1DIPC   D3B 8483   8.387  26.205   5.257  0.1280 -0.1189  0.2982
    1DIPC   C4B 8484   8.795  26.134   5.102  0.0418 -0.3233 -0.2362
    1DIPC   NC3 8485  28.790  26.528   6.768 -0.0460 -0.0028  0.0138
    1DIPC   PO4 8486  29.023  26.827   6.516  0.0133  0.0284 -0.1399
    1DIPC   GL1 8487  28.725  26.584   6.285  0.0366 -0.2847  0.0636
    1DIPC   GL2 8488  28.724  26.892   6.083 -0.1449 -0.1054 -0.1476
    1DIPC   C1A 8489  29.007  26.398   5.937 -0.4919  0.2883 -0.0857
    1DIPC   D2A 8490  29.178  26.291   5.442  0.2290  0.2008 -0.1376
    1DIPC   D3A 8491  28.797  26.401   5.087  0.2163 -0.0478  0.0919
    1DIPC   C4A 8492  28.333  26.334   5.096  0.1093 -0.0022 -0.2766
    1DIPC   C1B 8493  28.753  26.811   5.609 -0.0254  0.2645  0.0979
    1DIPC   D2B 8494  28.640  26.983   5.171  0.1070  0.2341  0.2845
    1DIPC   D3B 8495  28.899  27.280   4.842 -0.1118  0.0998 -0.1567
    1DIPC   C4B 8496  29.398  27.318   4.881 -0.1289 -0.2656 -0.0336
    1DIPC   NC3 8497  12.020  21.794   6.833 -0.0564 -0.3280 -0.0651
    1DIPC   PO4 8498  12.473  21.959   6.644  0.0455 -0.1164  0.0190
    1DIPC   GL1 8499  12.582  21.844   6.185 -0.1772  0.0086  0.2450
    1DIPC   GL2 8500  12.596  21.581   6.027  0.0748  0.0731 -0.0021
    1DIPC   C1A 8501  12.942  21.958   5.973 -0.3867  0.2703  0.2364
    1DIPC   D2A 8502  13.234  22.262   6.081 -0.0963  0.0458 -0.1017
    1DIPC   D3A 8503  13.445  22.080   5.840 -0.2070  0.2609 -0.0217
    1DIPC   C4A 8504  13.495  21.919   5.507 -0.0939  0.2628 -0.0717
    1DIPC   C1B 8505  12.639  21.504   5.649 -0.4038 -0.0370 -0.2562
    1DIPC   D2B 8506  12.614  21.745   5.316 -0.3285  0.2459  0.1614
    1DIPC   D3B 8507  12.943  21.712   5.017 -0.0850  0.3550  0.1103
    1DIPC   C4B 8508  13.024  21.635   4.532 -0.2127 -0.2622 -0.1958
    1DIPC   NC3 8509   1.286  29.279   6.192  0.0199  0.0123  0.3437
    1DIPC   PO4 8510   1.644  29.366   6.398  0.2221 -0.2745  0.5983
    1DIPC   GL1 8511   1.714  29.483   5.934  0.3533  0.0152  0.0208
    1DIPC   GL2 8512   1.762  29.773   5.768  0.1523  0.1559  0.2354
    1DIPC   C1A 8513   1.471  29.441   5.600  0.2728 -0.0597  0.0001
    1DIPC   D2A 8514   0.916  29.528   5.649 -0.1752 -0.2223 -0.0535
    1DIPC   D3A 8515   1.100  29.261   5.280  0.1435 -0.0552  0.0578
    1DIPC   C4A 8516   0.899  28.881   5.034  0.0190 -0.0327 -0.1575
    1DIPC   C1B 8517   1.936  29.853   5.368  0.0123 -0.1940  0.0485
    1DIPC   D2B 8518   1.704  29.735   5.037  0.2898 -0.2145 -0.0118
    1DIPC   D3B 8519   1.461  30.080   5.010 -0.3057 -0.1072 -0.3039
    1DIPC   C4B 8520   1.499  30.498   4.855  0.0734 -0.3077 -0.1103
    1DIPC   NC3 8521   5.545  27.810   7.363  0.0032 -0.0061  0.1949
    1DIPC   PO4 8522   5.374  27.734   6.979 -0.2237 -0.1417 -0.0997
    1DIPC   GL1 8523   5.074  27.668   6.570  0.1258  0.1098  0.1468
    1DIPC   GL2 8524   5.245  27.439   6.501  0.1416 -0.0964 -0.2044
    1DIPC   C1A 8525   4.853  27.736   6.174  0.0325  0.0698 -0.0115
    1DIPC   D2A 8526   4.843  28.057   5.824  0.0225  0.0602  0.3389
    1DIPC   D3A 8527   5.220  28.295   5.830  0.0015 -0.0571  0.0645
    1DIPC   C4A 8528   5.284  28.435   5.475 -0.1136  0.0861  0.0529
    1DIPC   C1B 8529   5.088  27.322   6.081 -0.4193  0.0520  0.2132
    1DIPC   D2B 8530   5.182  27.145   5.672  0.0859  0.0304 -0.3237
    1DIPC   D3B 8531   4.847  26.957   5.472  0.4227 -0.1523 -0.0237
    1DIPC   C4B 8532   4.895  26.626   5.253  0.0472  0.0500  0.1053
    1DIPC   NC3 8533  17.604   3.605   7.104  0.0757 -0.0531  0.0836
    1DIPC   PO4 8534  17.145   3.629   7.117 -0.1791 -0.0075 -0.1634
    1DIPC   GL1 8535  17.241   3.779   6.750 -0.2353  0.0307 -0.1984
    1DIPC   GL2 8536  17.463   3.661   6.569  0.2392 -0.1024 -0.2476
    1DIPC   C1A 8537  17.200   4.124   6.431  0.2883 -0.0205 -0.2166
    1DIPC   D2A 8538  17.141   4.263   6.126 -0.2136 -0.2760 -0.1273
    1DIPC   D3A 8539  16.919   3.857   6.000 -0.0456 -0.0090  0.0324
    1DIPC   C4A 8540  16.688   3.839   5.619  0.4614 -0.1937 -0.3556
    1DIPC   C1B 8541  17.060   3.562   6.379 -0.1108 -0.2460 -0.0503
    1DIPC   D2B 8542  16.801   3.343   6.106 -0.1590 -0.3175 -0.1749
    1DIPC   D3B 8543  16.451   3.753   6.191 -0.0474  0.0041 -0.1267
    1DIPC   C4B 8544  16.300   3.942   5.893  0.0020 -0.1544 -0.0316
    1DIPC   NC3 8545   2.490   1.573   6.497  0.0484  0.2612  0.0642
    1DIPC   PO4 8546   2.305   1.200   6.367 -0.1766  0.0518 -0.0267
    1DIPC   GL1 8547   2.381   1.529   6.019  0.1728 -0.1134  0.3073
    1DIPC   GL2 8548   2.134   1.547   5.937  0.0585  0.0572  0.2109
    1DIPC   C1A 8549   2.470   1.440   5.530 -0.2835 -0.1818  0.0064
    1DIPC   D2A 8550   2.736   1.271   5.301  0.2194 -0.1681  0.2140
    1DIPC   D3A 8551   2.577   1.457   5.023 -0.1597  0.3278 -0.0490
    1DIPC   C4A 8552   2.130   1.447   4.982 -0.2472  0.0628 -0.1559
    1DIPC   C1B 8553   2.038   1.801   5.616  0.1274 -0.1134  0.1241
    1DIPC   D2B 8554   2.329   1.843   5.278  0.1574  0.0855 -0.1204
    1DIPC   D3B 8555   2.247   1.985   4.895  0.0769  0.2115 -0.0044
    1DIPC   C4B 8556   2.402   1.701   4.577  0.0277 -0.1648 -0.1634
    1DIPC   NC3 8557  23.101  10.607   6.601  0.0114  0.1001  0.0527
    1DIPC   PO4 8558  22.671  10.307   6.553 -0.2217 -0.0010  0.1174
    1DIPC   GL1 8559  22.594  10.342   6.093 -0.1111 -0.0176 -0.0014
    1DIPC   GL2 8560  22.299  10.668   5.937 -0.0015 -0.1769 -0.1464
    1DIPC   C1A 8561  22.570  10.161   5.665 -0.3618  0.0296  0.0471
    1DIPC   D2A 8562  22.765  10.288   5.341 -0.1126  0.0485  0.1214
    1DIPC   D3A 8563  23.189  10.113   5.108 -0.0347  0.1430  0.0705
    1DIPC   C4A 8564  23.309  10.045   4.658  0.1364 -0.1271  0.2432
    1DIPC   C1B 8565  22.099  10.504   5.578  0.3074 -0.0769  0.0689
    1DIPC   D2B 8566  21.711  10.351   5.436 -0.2590  0.0691  0.1586
    1DIPC   D3B 8567  21.596  10.712   5.131 -0.0282 -0.1960  0.0621
    1DIPC   C4B 8568  21.778  10.787   4.766 -0.1289 -0.0593  0.0703
    1DIPC   NC3 8569  24.672  23.070   6.692 -0.3382 -0.0069 -0.2349
    1DIPC   PO4 8570  24.753  22.681   6.755 -0.1396 -0.1038  0.2490
    1DIPC   GL1 8571  24.738  22.844   6.255  0.0068  0.5979 -0.0123
    1DIPC   GL2 8572  24.969  22.807   5.883 -0.1682 -0.0250  0.2687
    1DIPC   C1A 8573  24.528  22.888   5.867  0.0575  0.1992 -0.1428
    1DIPC   D2A 8574  24.699  22.844   5.427  0.1197  0.2072  0.0893
    1DIPC   D3A 8575  25.105  22.849   5.291  0.5550 -0.3151 -0.0851
    1DIPC   C4A 8576  25.189  23.022   4.916 -0.1652 -0.0112 -0.1154
    1DIPC   C1B 8577  24.806  23.246   5.636 -0.1648  0.0005  0.0302
    1DIPC   D2B 8578  25.102  23.330   5.312  0.0335  0.0143 -0.1497
    1DIPC   D3B 8579  25.486  23.396   5.321 -0.4089 -0.1783  0.2645
    1DIPC   C4B 8580  25.709  23.237   4.968  0.5105 -0.1329 -0.0906
    1DIPC   NC3 8581   4.291  22.977   5.606 -0.1394 -0.0035 -0.1190
    1DIPC   PO4 8582   3.829  22.806   5.629  0.0798 -0.0315 -0.0948
    1DIPC   GL1 8583   3.995  22.795   5.246  0.1985  0.0950  0.1119
    1DIPC   GL2 8584   4.148  22.469   5.221  0.1645 -0.2382 -0.2031
    1DIPC   C1A 8585   3.941  22.957   4.880 -0.0383 -0.2166 -0.1433
    1DIPC   D2A 8586   3.716  23.021   4.506  0.0534  0.3654  0.4329
    1DIPC   D3A 8587   3.574  23.374   4.508 -0.2090  0.2259  0.1568
    1DIPC   C4A 8588   3.787  23.765   4.503  0.4824 -0.1863 -0.1555
    1DIPC   C1B 8589   3.934  22.366   4.900 -0.4500 -0.0475  0.0974
    1DIPC   D2B 8590   3.527  22.585   4.799 -0.0825  0.0630  0.1381
    1DIPC   D3B 8591   3.268  22.631   5.103 -0.1127  0.2361 -0.0713
    1DIPC   C4B 8592   2.920  22.745   5.058 -0.2291 -0.1609 -0.0754
    1DIPC   NC3 8593  13.108   7.709   7.712  0.1719  0.0312 -0.0788
    1DIPC   PO4 8594  13.046   8.166   7.543 -0.0330  0.1073  0.1066
    1DIPC   GL1 8595  12.744   7.878   7.317 -0.0458 -0.0610 -0.2360
    1DIPC   GL2 8596  12.648   7.551   7.246  0.0028 -0.4275 -0.0519
    1DIPC   C1A 8597  12.582   7.958   6.873  0.2707 -0.1527 -0.0395
    1DIPC   D2A 8598  12.368   7.763   6.541  0.3377  0.0195  0.1765
    1DIPC   D3A 8599  12.182   7.395   6.630 -0.0593  0.5067 -0.0922
    1DIPC   C4A 8600  12.115   7.002   6.361  0.0587  0.0728  0.1124
    1DIPC   C1B 8601  12.696   7.460   6.854  0.0875  0.1889 -0.2701
    1DIPC   D2B 8602  12.826   7.618   6.424  0.2199 -0.0499  0.1890
    1DIPC   D3B 8603  12.867   7.308   6.084 -0.0546 -0.0531 -0.0507
    1DIPC   C4B 8604  13.057   7.488   5.636 -0.1599  0.1368 -0.1035
    1DIPC   NC3 8605   7.314  27.116   7.418 -0.1779  0.3241  0.0100
    1DIPC   PO4 8606   7.245  27.619   7.337  0.1129  0.0552 -0.1679
    1DIPC   GL1 8607   7.178  27.426   6.958  0.1926  0.3962 -0.0502
    1DIPC   GL2 8608   7.329  27.093   6.842 -0.0498 -0.1777  0.0519
    1DIPC   C1A 8609   7.039  27.389   6.546 -0.0207  0.0763  0.1138
    1DIPC   D2A 8610   7.087  27.219   6.056  0.0027 -0.2836 -0.1737
    1DIPC   D3A 8611   7.056  27.570   5.638 -0.2641 -0.1257 -0.2227
    1DIPC   C4A 8612   7.533  27.752   5.465  0.0253 -0.3054  0.0141
    1DIPC   C1B 8613   7.209  26.849   6.463  0.2122 -0.2572 -0.2398
    1DIPC   D2B 8614   7.059  26.711   6.050  0.1026  0.1297 -0.2196
    1DIPC   D3B 8615   7.179  26.902   5.658  0.0178 -0.0755  0.0169
    1DIPC   C4B 8616   7.305  26.586   5.402  0.1029 -0.2737  0.0577
    1DIPC   NC3 8617   2.423   0.655   5.963  0.1854 -0.0185  0.0971
    1DIPC   PO4 8618   2.655   0.364   6.104 -0.0084 -0.0540 -0.3711
    1DIPC   GL1 8619   2.615   0.114   5.820 -0.1548  0.0514 -0.0842
    1DIPC   GL2 8620   2.789   0.037   5.750 -0.1524 -0.0825 -0.1962
    1DIPC   C1A 8621   2.432  -0.018   5.333 -0.0147 -0.0433 -0.0772
    1DIPC   D2A 8622   2.139  -0.070   4.947 -0.1190 -0.0239  0.2949
    1DIPC   D3A 8623   2.436  -0.346   4.802 -0.0203 -0.2607 -0.3084
    1DIPC   C4A 8624   2.840  -0.342   4.835 -0.0019  0.3754  0.2375
    1DIPC   C1B 8625   3.148   0.192   5.646  0.1432  0.3100 -0.1291
    1DIPC   D2B 8626   3.248   0.519   5.277 -0.0352 -0.0905  0.0189
    1DIPC   D3B 8627   3.285   0.464   4.894 -0.0260 -0.1279 -0.2967
    1DIPC   C4B 8628   3.700   0.320   4.866  0.1599 -0.1219 -0.0053
    1DIPC   NC3 8629  23.079  22.402   6.805 -0.2282 -0.0344  0.0021
    1DIPC   PO4 8630  23.160  22.878   6.936 -0.2305 -0.1737 -0.3899
    1DIPC   GL1 8631  23.142  22.913   6.473 -0.0264 -0.3765 -0.1586
    1DIPC   GL2 8632  23.299  22.648   6.305 -0.0306  0.0214  0.2381
    1DIPC   C1A 8633  22.896  22.892   6.093 -0.1684 -0.2957 -0.1405
    1DIPC   D2A 8634  22.617  22.794   5.786  0.0789  0.2726  0.2573
    1DIPC   D3A 8635  22.367  22.436   5.639  0.1560 -0.1496  0.2967
    1DIPC   C4A 8636  22.094  22.200   5.270  0.2531 -0.3595  0.1145
    1DIPC   C1B 8637  23.299  22.592   5.867 -0.1298  0.0817 -0.2393
    1DIPC   D2B 8638  23.011  22.758   5.524 -0.4891  0.1287 -0.0558
    1DIPC   D3B 8639  23.424  22.802   5.416 -0.0629 -0.0877  0.1062
    1DIPC   C4B 8640  23.690  22.501   5.290  0.1486 -0.0440 -0.0273
    1DIPC   NC3 8641   0.192  11.072   5.957  0.1733 -0.0341  0.2424
    1DIPC   PO4 8642   0.309  11.524   6.080  0.0040 -0.1788  0.0733
    1DIPC   GL1 8643   0.053  11.517   5.794  0.0819 -0.0855 -0.1504
    1DIPC   GL2 8644   0.185  11.286   5.522  0.2379  0.0677 -0.2158
    1DIPC   C1A 8645  -0.048  11.749   5.477  0.2114  0.0694  0.0647
    1DIPC   D2A 8646   0.146  11.817   5.137 -0.1025 -0.0914  0.0474
    1DIPC   D3A 8647  -0.232  11.758   4.953  0.1311 -0.1528 -0.0791
    1DIPC   C4A 8648  -0.050  11.621   4.668 -0.1325  0.2503 -0.1583
    1DIPC   C1B 8649   0.121  11.288   5.077  0.0172 -0.1465 -0.0126
    1DIPC   D2B 8650  -0.053  11.020   4.792 -0.3867  0.5943 -0.2835
    1DIPC   D3B 8651   0.332  11.230   4.621  0.1135  0.0978  0.1816
    1DIPC   C4B 8652   0.491  11.517   4.684  0.2507  0.0740 -0.1971
    1DIPC   NC3 8653   3.829  13.494   6.795  0.1434 -0.0619  0.0801
    1DIPC   PO4 8654   3.459  13.401   6.461  0.1530 -0.0089 -0.0886
    1DIPC   GL1 8655   3.395  13.213   6.150 -0.0618  0.1518 -0.1097
    1DIPC   GL2 8656   3.603  13.159   5.850  0.0145  0.2648 -0.3377
    1DIPC   C1A 8657   3.231  12.825   6.015  0.0531 -0.3299 -0.0773
    1DIPC   D2A 8658   3.069  12.406   5.924  0.1751 -0.1052 -0.2761
    1DIPC   D3A 8659   2.672  12.300   5.995 -0.0110  0.1464 -0.0955
    1DIPC   C4A 8660   2.398  12.326   5.597  0.2648 -0.1871 -0.2028
    1DIPC   C1B 8661   3.367  13.062   5.502 -0.0969  0.1013 -0.0187
    1DIPC   D2B 8662   3.152  12.787   5.193  0.1257  0.0087  0.0367
    1DIPC   D3B 8663   2.787  12.944   4.954 -0.1530  0.0519  0.2793
    1DIPC   C4B 8664   2.512  12.686   4.652  0.5654 -0.0796  0.1908
    1DIPC   NC3 8665  24.196   1.763   6.637  0.1507  0.0265  0.0005
    1DIPC   PO4 8666  24.030   1.512   6.281 -0.0395 -0.3679  0.0715
    1DIPC   GL1 8667  23.979   1.397   5.857  0.2976 -0.1961  0.1023
    1DIPC   GL2 8668  23.690   1.170   5.696  0.1425  0.0326 -0.0541
    1DIPC   C1A 8669  24.060   1.599   5.439 -0.0757 -0.0668 -0.2680
    1DIPC   D2A 8670  24.205   1.781   5.017  0.1424 -0.3137 -0.0666
    1DIPC   D3A 8671  24.553   1.802   4.869  0.1388 -0.3123 -0.0220
    1DIPC   C4A 8672  24.729   1.657   4.490 -0.3088 -0.2381  0.0844
    1DIPC   C1B 8673  23.836   1.028   5.345  0.2646 -0.0728  0.1621
    1DIPC   D2B 8674  23.773   0.881   5.022  0.1952  0.0768  0.1516
    1DIPC   D3B 8675  23.435   0.629   4.956  0.1294  0.2283  0.1523
    1DIPC   C4B 8676  23.096   0.680   4.651 -0.1690  0.4442  0.2868
    1DIPC   NC3 8677  21.533   7.534   7.328 -0.2073  0.0636  0.4773
    1DIPC   PO4 8678  21.103   7.733   7.103 -0.1463 -0.0496 -0.0558
    1DIPC   GL1 8679  21.215   7.919   6.621  0.2866  0.1067  0.1330
    1DIPC   GL2 8680  21.513   8.144   6.442  0.1041 -0.1002 -0.1029
    1DIPC   C1A 8681  21.117   7.877   6.187 -0.1424 -0.0224 -0.0394
    1DIPC   D2A 8682  20.907   7.906   5.793  0.1160 -0.2614 -0.2139
    1DIPC   D3A 8683  21.065   7.778   5.471  0.2952  0.1369 -0.1016
    1DIPC   C4A 8684  21.141   7.508   5.119  0.1988 -0.0788  0.2862
    1DIPC   C1B 8685  21.350   8.357   5.959  0.3361  0.2323  0.0027
    1DIPC   D2B 8686  21.245   8.254   5.596  0.1174 -0.1075  0.0827
    1DIPC   D3B 8687  21.510   8.573   5.584  0.0386  0.1164  0.2390
    1DIPC   C4B 8688  21.952   8.587   5.312  0.1378 -0.2196 -0.2302
    1DIPC   NC3 8689   2.348  16.347   5.696 -0.0491 -0.0781  0.2257
    1DIPC   PO4 8690   2.143  16.501   6.100 -0.1059  0.0549 -0.0792
    1DIPC   GL1 8691   1.872  16.378   5.687 -0.2201  0.1461 -0.0662
    1DIPC   GL2 8692   1.855  16.079   5.663 -0.2234  0.3858  0.0626
    1DIPC   C1A 8693   1.495  16.208   5.411 -0.1441 -0.2981 -0.0045
    1DIPC   D2A 8694   1.401  16.054   4.999 -0.0043  0.0720  0.0150
    1DIPC   D3A 8695   1.245  16.301   4.690 -0.0737 -0.2247 -0.3740
    1DIPC   C4A 8696   1.465  16.533   4.355  0.2568  0.0479  0.1823
    1DIPC   C1B 8697   1.967  16.163   5.195  0.1899  0.2179  0.2057
    1DIPC   D2B 8698   2.087  16.079   4.855  0.3407 -0.1608 -0.0545
    1DIPC   D3B 8699   2.107  15.702   4.618  0.5108 -0.1148  0.1613
    1DIPC   C4B 8700   1.845  15.702   4.235  0.0929  0.0205 -0.2617
    1DIPC   NC3 8701  13.456   7.991   7.861  0.1456  0.0414 -0.0208
    1DIPC   PO4 8702  13.598   7.591   7.826  0.0507  0.1041  0.3137
    1DIPC   GL1 8703  13.572   7.702   7.389 -0.0268  0.1939 -0.0226
    1DIPC   GL2 8704  13.264   7.690   7.171  0.0770 -0.0308  0.3971
    1DIPC   C1A 8705  13.725   7.823   6.952 -0.0696 -0.2939  0.1552
    1DIPC   D2A 8706  14.001   7.837   6.577 -0.0499 -0.2098  0.0641
    1DIPC   D3A 8707  13.873   7.411   6.597 -0.0458  0.2235  0.4697
    1DIPC   C4A 8708  13.805   7.171   6.189  0.1735 -0.0474 -0.0029
    1DIPC   C1B 8709  13.050   7.868   6.861 -0.0222 -0.0522 -0.1064
    1DIPC   D2B 8710  13.056   8.135   6.554 -0.1655 -0.2713 -0.0171
    1DIPC   D3B 8711  12.765   8.176   6.334 -0.1343  0.0841  0.0868
    1DIPC   C4B 8712  12.752   8.549   6.154 -0.0176 -0.0131  0.1789
    1DIPC   NC3 8713  29.008  20.075   6.370  0.1594 -0.0770 -0.0340
    1DIPC   PO4 8714  28.661  20.173   6.255 -0.1914  0.2958 -0.3831
    1DIPC   GL1 8715  28.607  19.988   5.930 -0.0567 -0.0285 -0.1688
    1DIPC   GL2 8716  28.519  20.263   5.680  0.1227  0.0064 -0.0854
    1DIPC   C1A 8717  28.616  19.578   5.676 -0.1570 -0.0844  0.1023
    1DIPC   D2A 8718  28.816  19.168   5.606  0.0808  0.2209 -0.3387
    1DIPC   D3A 8719  28.566  19.317   5.227  0.2681 -0.1203  0.2156
    1DIPC   C4A 8720  28.627  19.684   4.974  0.0784 -0.0692  0.0621
    1DIPC   C1B 8721  28.336  20.430   5.322  0.2212 -0.2681 -0.3368
    1DIPC   D2B 8722  28.326  20.177   4.973 -0.1545 -0.0055  0.0692
    1DIPC   D3B 8723  27.886  20.014   4.904  0.1687  0.2606  0.2736
    1DIPC   C4B 8724  27.717  19.684   4.699  0.0432  0.0993  0.0937
    1DIPC   NC3 8725  25.589  13.664   5.679  0.0470 -0.0909 -0.1326
    1DIPC   PO4 8726  25.295  13.369   5.681 -0.2505 -0.1268  0.5026
    1DIPC   GL1 8727  25.185  13.199   5.357 -0.0492 -0.0024  0.1661
    1DIPC   GL2 8728  25.045  13.304   5.014 -0.0150 -0.0931  0.1905
    1DIPC   C1A 8729  24.683  13.107   5.261 -0.0406  0.0784  0.0881
    1DIPC   D2A 8730  24.260  12.957   5.292 -0.0528  0.0861 -0.1267
    1DIPC   D3A 8731  24.158  13.078   4.945 -0.1079 -0.0994 -0.0285
    1DIPC   C4A 8732  23.785  13.293   4.573 -0.1441  0.3108  0.0432
    1DIPC   C1B 8733  24.997  12.904   4.739 -0.0502 -0.0460  0.1158
    1DIPC   D2B 8734  25.023  12.719   4.399  0.1717  0.1082 -0.1893
    1DIPC   D3B 8735  24.905  13.087   4.122  0.0611  0.0991 -0.0620
    1DIPC   C4B 8736  24.611  13.345   4.159  0.0548  0.0407 -0.2883
    1DIPC   NC3 8737  22.281   7.248   7.066  0.1457 -0.0481  0.2404
    1DIPC   PO4 8738  22.045   7.601   7.165 -0.0910 -0.0479 -0.0701
    1DIPC   GL1 8739  21.912   7.593   6.715 -0.0896 -0.2458  0.1046
    1DIPC   GL2 8740  21.932   7.282   6.564 -0.2792  0.0344  0.2197
    1DIPC   C1A 8741  21.582   7.613   6.328  0.0322  0.0724 -0.0617
    1DIPC   D2A 8742  21.611   7.761   5.936 -0.0821 -0.0586  0.1404
    1DIPC   D3A 8743  21.537   7.829   5.580 -0.3265  0.1232  0.1134
    1DIPC   C4A 8744  21.613   7.750   5.158  0.2767 -0.1122 -0.0164
    1DIPC   C1B 8745  21.778   7.226   6.065  0.0628  0.0579 -0.0721
    1DIPC   D2B 8746  21.771   7.333   5.649 -0.0664 -0.0032 -0.2716
    1DIPC   D3B 8747  22.076   7.595   5.733  0.0411  0.3474  0.0305
    1DIPC   C4B 8748  22.209   7.836   5.395 -0.0391 -0.3404  0.0910
    1DIPC   NC3 8749  11.920   5.056   7.227 -0.2654 -0.0158 -0.0985
    1DIPC   PO4 8750  11.565   4.905   6.960 -0.1063 -0.1597 -0.2106
    1DIPC   GL1 8751  11.355   4.595   6.896  0.1663 -0.2543  0.0370
    1DIPC   GL2 8752  11.625   4.267   6.895  0.1539 -0.3321  0.0278
    1DIPC   C1A 8753  11.168   4.233   6.726 -0.0659  0.0192  0.1508
    1DIPC   D2A 8754  11.434   4.021   6.397  0.1630  0.1043 -0.4415
    1DIPC   D3A 8755  11.618   3.894   6.119 -0.0343  0.1324 -0.4415
    1DIPC   C4A 8756  11.705   3.698   5.783  0.0484  0.2100  0.1872
    1DIPC   C1B 8757  11.817   4.313   6.503 -0.1453  0.5241  0.1563
    1DIPC   D2B 8758  12.093   4.261   6.099  0.0464 -0.0084  0.1263
    1DIPC   D3B 8759  11.895   4.417   5.704  0.1043 -0.1505  0.0913
    1DIPC   C4B 8760  11.775   4.212   5.398 -0.2628  0.3528  0.0665
    1DIPC   NC3 8761   0.622  23.667   6.247  0.0142  0.2061  0.1722
    1DIPC   PO4 8762   0.301  24.059   6.281 -0.2128 -0.1817 -0.2285
    1DIPC   GL1 8763   0.401  24.112   5.986  0.3827 -0.0863 -0.0393
    1DIPC   GL2 8764   0.091  24.248   5.682 -0.2027 -0.1967 -0.2406
    1DIPC   C1A 8765   0.662  24.014   5.639 -0.4207 -0.1699 -0.3454
    1DIPC   D2A 8766   0.798  24.127   5.341 -0.2159  0.3661  0.1045
    1DIPC   D3A 8767   0.914  24.114   4.874  0.0262 -0.0628  0.1264
    1DIPC   C4A 8768   1.272  24.319   4.661  0.0581 -0.0751 -0.5871
    1DIPC   C1B 8769   0.058  24.084   5.405  0.0965 -0.1975  0.3187
    1DIPC   D2B 8770   0.251  23.811   5.126 -0.2300 -0.1510 -0.2722
    1DIPC   D3B 8771   0.205  23.508   4.825  0.0698 -0.0033 -0.0565
    1DIPC   C4B 8772  -0.157  23.227   4.582 -0.1391 -0.1299  0.0375
    1DIPC   NC3 8773  19.778   1.659   6.494 -0.0095  0.1365  0.3772
    1DIPC   PO4 8774  19.514   1.746   6.187 -0.0876  0.0053 -0.0086
    1DIPC   GL1 8775  19.256   1.516   5.913 -0.1206  0.0824  0.1457
    1DIPC   GL2 8776  19.389   1.419   5.695  0.3603 -0.1071  0.0642
    1DIPC   C1A 8777  18.888   1.626   5.626  0.0640  0.1970  0.1641
    1DIPC   D2A 8778  18.738   1.645   5.237  0.0950  0.1413 -0.1879
    1DIPC   D3A 8779  18.740   1.385   4.991 -0.1942  0.0668 -0.0663
    1DIPC   C4A 8780  19.131   1.419   4.647 -0.0561  0.1183  0.2112
    1DIPC   C1B 8781  19.054   1.247   5.371 -0.4274 -0.0615 -0.0127
    1DIPC   D2B 8782  19.014   0.945   5.040  0.0198 -0.0653  0.0026
    1DIPC   D3B 8783  18.724   0.920   4.824 -0.1080  0.2964  0.1496
    1DIPC   C4B 8784  18.710   1.287   4.489  0.0382  0.0442  0.1560
    1DIPC   NC3 8785   1.298  27.410   6.319 -0.4381 -0.1436  0.3100
    1DIPC   PO4 8786   1.444  27.743   6.216 -0.2023  0.0575 -0.1633
    1DIPC   GL1 8787   1.547  27.665   5.878  0.3299  0.0303  0.1305
    1DIPC   GL2 8788   1.752  27.842   5.849  0.2559 -0.0339 -0.2496
    1DIPC   C1A 8789   1.331  27.683   5.490 -0.1766  0.2897 -0.0749
    1DIPC   D2A 8790   1.424  27.708   5.050  0.0296  0.1351 -0.0743
    1DIPC   D3A 8791   0.980  27.686   5.048 -0.2809 -0.2619  0.0370
    1DIPC   C4A 8792   0.879  27.291   5.205  0.0419  0.1458 -0.0675
    1DIPC   C1B 8793   2.074  27.653   5.672  0.0104  0.1660  0.0729
    1DIPC   D2B 8794   2.270  27.192   5.607 -0.3393  0.1097 -0.2376
    1DIPC   D3B 8795   1.993  27.304   5.194  0.2697 -0.0565 -0.0093
    1DIPC   C4B 8796   1.885  27.746   5.229  0.1063  0.1133  0.2055
    1DIPC   NC3 8797   1.905  26.064   6.975  0.2234 -0.1822  0.0813
    1DIPC   PO4 8798   1.549  26.323   6.925  0.0782  0.2351  0.0147
    1DIPC   GL1 8799   1.647  26.454   6.530 -0.0262 -0.0689  0.1294
    1DIPC   GL2 8800   1.867  26.501   6.201 -0.0244  0.0666  0.1645
    1DIPC   C1A 8801   1.308  26.451   6.214  0.0333 -0.3520  0.0092
    1DIPC   D2A 8802   0.937  26.435   5.896  0.0095 -0.2783  0.2315
    1DIPC   D3A 8803   0.633  26.214   6.145  0.2201 -0.1738 -0.0615
    1DIPC   C4A 8804   0.644  25.929   5.852  0.0610 -0.4432 -0.2708
    1DIPC   C1B 8805   1.535  26.655   5.780  0.0508 -0.0801  0.2149
    1DIPC   D2B 8806   1.537  26.606   5.472 -0.1102 -0.2469  0.4105
    1DIPC   D3B 8807   1.293  26.753   5.149  0.2676  0.2704  0.0755
    1DIPC   C4B 8808   1.036  26.466   4.858  0.1670 -0.2312  0.2390
    1DIPC   NC3 8809   8.649  24.022   6.232  0.0864  0.0573 -0.1142
    1DIPC   PO4 8810   8.668  23.606   5.900  0.1574 -0.1328  0.2038
    1DIPC   GL1 8811   8.660  23.619   5.503  0.1010  0.2895  0.0746
    1DIPC   GL2 8812   8.347  23.796   5.405 -0.1021 -0.1278 -0.0367
    1DIPC   C1A 8813   8.729  23.694   5.085 -0.4644  0.0434 -0.2858
    1DIPC   D2A 8814   8.977  23.638   4.719  0.1344 -0.0528  0.0463
    1DIPC   D3A 8815   8.971  23.984   4.767 -0.0003 -0.1599 -0.2232
    1DIPC   C4A 8816   8.636  24.186   4.941  0.0434  0.2472  0.1632
    1DIPC   C1B 8817   8.624  24.114   5.464  0.0498 -0.0050 -0.0318
    1DIPC   D2B 8818   9.026  24.093   5.288 -0.4557 -0.0794  0.0382
    1DIPC   D3B 8819   9.170  24.414   5.044  0.0431 -0.1978 -0.0136
    1DIPC   C4B 8820   9.015  24.467   4.629 -0.1033  0.0610 -0.0063
    1DIPC   NC3 8821   8.533   8.491   7.150 -0.3074  0.1502 -0.0911
    1DIPC   PO4 8822   8.406   8.913   6.891  0.2470 -0.1357 -0.0462
    1DIPC   GL1 8823   8.544   8.565   6.590  0.0315 -0.1027  0.1017
    1DIPC   GL2 8824   8.861   8.745   6.484 -0.0067  0.1269  0.0106
    1DIPC   C1A 8825   8.551   8.371   6.152  0.0603 -0.0386 -0.0855
    1DIPC   D2A 8826   8.664   8.167   5.786  0.2896  0.0880  0.2373
    1DIPC   D3A 8827   8.971   8.321   5.507 -0.2696  0.0910  0.2019
    1DIPC   C4A 8828   9.047   8.133   5.046  0.2461 -0.0097 -0.0223
    1DIPC   C1B 8829   8.705   9.001   6.142  0.0467  0.2391 -0.0823
    1DIPC   D2B 8830   8.605   9.235   5.755 -0.1144 -0.2879 -0.1232
    1DIPC   D3B 8831   8.409   9.144   5.384  0.0544  0.0494 -0.1452
    1DIPC   C4B 8832   8.829   9.308   5.238  0.1358 -0.3455 -0.0422
    1DIPC   NC3 8833  25.436   3.377   5.774 -0.1946  0.1916 -0.1960
    1DIPC   PO4 8834  25.617   3.835   5.816  0.1145 -0.0576  0.0024
    1DIPC   GL1 8835  25.693   3.817   5.357  0.0746  0.0064  0.4314
    1DIPC   GL2 8836  25.589   3.532   5.154  0.0933  0.2213 -0.2012
    1DIPC   C1A 8837  25.692   4.093   5.044  0.5534  0.1848 -0.0629
    1DIPC   D2A 8838  25.556   4.163   4.659 -0.0516 -0.2836 -0.4465
    1DIPC   D3A 8839  25.569   3.712   4.701  0.0415  0.0100 -0.1172
    1DIPC   C4A 8840  25.931   3.447   4.813 -0.1480 -0.2901  0.2029
    1DIPC   C1B 8841  25.534   3.207   4.898 -0.0957  0.3378  0.1255
    1DIPC   D2B 8842  25.503   2.900   4.590 -0.0929 -0.1664  0.0223
    1DIPC   D3B 8843  25.920   2.700   4.406  0.0587 -0.0707  0.1584
    1DIPC   C4B 8844  26.290   2.363   4.486 -0.1210 -0.2284 -0.0941
    1DIPC   NC3 8845  14.693   5.494   7.675  0.0657  0.1713  0.3902
    1DIPC   PO4 8846  14.572   5.783   7.507  0.0653  0.3883  0.2142
    1DIPC   GL1 8847  14.910   5.888   7.288 -0.2625 -0.0160  0.1761
    1DIPC   GL2 8848  14.887   6.193   7.064  0.2496  0.2417  0.2543
    1DIPC   C1A 8849  15.197   5.672   7.042  0.2823 -0.0310 -0.0524
    1DIPC   D2A 8850  15.652   5.700   6.940 -0.2951  0.0940 -0.1267
    1DIPC   D3A 8851  15.622   5.428   6.606  0.0446 -0.1058 -0.3540
    1DIPC   C4A 8852  15.506   5.540   6.098 -0.1628 -0.1614  0.0346
    1DIPC   C1B 8853  14.662   6.411   6.717 -0.0270  0.1663  0.0657
    1DIPC   D2B 8854  14.609   6.561   6.211 -0.1940 -0.4166  0.2058
    1DIPC   D3B 8855  14.254   6.410   6.211 -0.0303  0.0288  0.0114
    1DIPC   C4B 8856  13.934   6.676   6.109  0.2142  0.1306  0.0978
    1DIPC   NC3 8857  15.905  27.003   7.532  0.0226  0.0486 -0.0592
    1DIPC   PO4 8858  15.936  26.792   7.055 -0.2215  0.1079 -0.0484
    1DIPC   GL1 8859  15.664  26.980   6.845  0.4275  0.0957 -0.1361
    1DIPC   GL2 8860  15.365  26.711   6.715  0.4068  0.0592  0.2646
    1DIPC   C1A 8861  15.735  27.317   6.566 -0.1257  0.1572 -0.0293
    1DIPC   D2A 8862  15.875  27.550   6.142  0.0508  0.1434  0.1059
    1DIPC   D3A 8863  15.755  27.750   5.902 -0.0683  0.3325 -0.0271
    1DIPC   C4A 8864  15.264  28.020   5.910  0.1721 -0.2902  0.0625
    1DIPC   C1B 8865  15.289  26.867   6.331  0.1581  0.0614 -0.0427
    1DIPC   D2B 8866  15.497  27.219   6.200  0.2337  0.1588 -0.0754
    1DIPC   D3B 8867  15.385  27.476   5.743 -0.0010  0.0596  0.0060
    1DIPC   C4B 8868  15.109  27.736   5.557  0.0187 -0.0683 -0.2658
    1DIPC   NC3 8869  25.103   5.747   6.117 -0.1825  0.0827 -0.0864
    1DIPC   PO4 8870  24.942   6.164   6.089 -0.1218  0.1032 -0.3150
    1DIPC   GL1 8871  24.923   6.090   5.713  0.1280  0.0243 -0.0343
    1DIPC   GL2 8872  24.977   6.385   5.606  0.0664  0.2303  0.4216
    1DIPC   C1A 8873  24.814   6.003   5.370  0.3939 -0.2401 -0.1687
    1DIPC   D2A 8874  24.753   6.134   4.990  0.1270 -0.4238 -0.0756
    1DIPC   D3A 8875  24.882   6.216   4.491  0.0246 -0.2402 -0.2685
    1DIPC   C4A 8876  24.651   6.267   4.165 -0.0464  0.0701 -0.2357
    1DIPC   C1B 8877  24.673   6.565   5.322  0.1231 -0.0503 -0.0712
    1DIPC   D2B 8878  24.428   6.806   5.064  0.0803 -0.0844 -0.0853
    1DIPC   D3B 8879  24.092   6.696   4.720 -0.2363  0.1597  0.0290
    1DIPC   C4B 8880  24.121   6.539   4.306 -0.0498  0.3724  0.1825
    1DIPC   NC3 8881  12.744  23.794   7.050 -0.0068  0.0433 -0.0545
    1DIPC   PO4 8882  12.850  23.507   6.707  0.1190  0.2607 -0.2225
    1DIPC   GL1 8883  12.948  23.773   6.388  0.1392  0.1428  0.1283
    1DIPC   GL2 8884  13.097  23.641   6.187 -0.0937 -0.1874  0.1740
    1DIPC   C1A 8885  12.961  24.023   5.910 -0.0975 -0.0082  0.1427
    1DIPC   D2A 8886  13.063  23.840   5.596 -0.0959 -0.0027  0.0255
    1DIPC   D3A 8887  13.519  23.709   5.799  0.4339  0.1000 -0.2242
    1DIPC   C4A 8888  13.853  23.543   5.742 -0.0358 -0.1293 -0.0005
    1DIPC   C1B 8889  13.159  23.397   5.881  0.0481 -0.0485 -0.2370
    1DIPC   D2B 8890  13.329  23.408   5.434 -0.1850  0.1951 -0.0537
    1DIPC   D3B 8891  13.647  23.407   5.260  0.1869 -0.0646 -0.0411
    1DIPC   C4B 8892  13.617  23.501   4.849 -0.1021 -0.0607 -0.0584
    1DIPC   NC3 8893   4.903  23.253   6.035 -0.2096 -0.1289 -0.0662
    1DIPC   PO4 8894   5.028  23.695   6.006  0.2523  0.2227  0.1779
    1DIPC   GL1 8895   4.824  23.677   5.638 -0.2706  0.0325 -0.3374
    1DIPC   GL2 8896   4.841  24.009   5.527 -0.2040  0.1363 -0.1694
    1DIPC   C1A 8897   4.942  23.563   5.148  0.1080  0.0360 -0.0175
    1DIPC   D2A 8898   5.225  23.683   4.905  0.0477  0.1974 -0.3208
    1DIPC   D3A 8899   5.538  23.889   4.745  0.1505  0.0014 -0.0052
    1DIPC   C4A 8900   5.466  24.122   4.311 -0.0279 -0.0860 -0.2754
    1DIPC   C1B 8901   4.899  24.160   5.107 -0.1094  0.0928 -0.3621
    1DIPC   D2B 8902   4.775  24.145   4.634 -0.1117 -0.1309  0.1016
    1DIPC   D3B 8903   5.091  23.947   4.524  0.1468 -0.1239  0.1189
    1DIPC   C4B 8904   5.001  23.551   4.483  0.1197 -0.0737 -0.1019
    1DIPC   NC3 8905  26.773  13.325   6.057 -0.2178 -0.0023 -0.1212
    1DIPC   PO4 8906  26.495  13.153   5.759 -0.1405 -0.1607 -0.1133
    1DIPC   GL1 8907  26.472  13.184   5.300  0.0153  0.0703  0.0275
    1DIPC   GL2 8908  26.810  13.226   5.232 -0.0790  0.0026  0.0028
    1DIPC   C1A 8909  26.402  13.253   4.860 -0.2284  0.1902  0.1251
    1DIPC   D2A 8910  26.656  13.206   4.622 -0.2293  0.1536 -0.1994
    1DIPC   D3A 8911  26.933  13.552   4.843 -0.1217  0.2271  0.2754
    1DIPC   C4A 8912  27.252  13.845   4.530 -0.1773 -0.0915 -0.2653
    1DIPC   C1B 8913  26.951  12.933   4.830  0.3131  0.1726 -0.0474
    1DIPC   D2B 8914  27.404  12.910   4.733 -0.2441  0.2180  0.0768
    1DIPC   D3B 8915  27.281  13.332   4.469  0.0935  0.2462 -0.0626
    1DIPC   C4B 8916  27.299  13.610   4.113  0.1287  0.0819  0.1218
    1DIPC   NC3 8917   0.860  27.366   6.904  0.2022  0.0484 -0.0830
    1DIPC   PO4 8918   1.135  27.145   6.677 -0.1809 -0.2151 -0.3701
    1DIPC   GL1 8919   0.896  27.004   6.434  0.1367  0.0677  0.3641
    1DIPC   GL2 8920   0.780  27.291   6.267 -0.2169 -0.1889 -0.2422
    1DIPC   C1A 8921   0.621  26.706   6.165 -0.0905  0.2268  0.1070
    1DIPC   D2A 8922   0.205  26.657   6.163 -0.0281 -0.2631 -0.1782
    1DIPC   D3A 8923  -0.182  26.891   6.020 -0.0392 -0.0454  0.3359
    1DIPC   C4A 8924  -0.128  26.846   5.571  0.0627 -0.0301  0.0941
    1DIPC   C1B 8925   0.558  27.656   6.050  0.1851 -0.0942 -0.1077
    1DIPC   D2B 8926   0.418  27.799   5.760 -0.1295 -0.0869 -0.3533
    1DIPC   D3B 8927   0.633  27.776   5.406 -0.0674 -0.0611  0.4045
    1DIPC   C4B 8928   0.435  27.551   5.059  0.2387 -0.1834  0.1621
    1DIPC   NC3 8929  22.128   1.447   6.686  0.0656  0.3486 -0.2314
    1DIPC   PO4 8930  22.031   1.679   6.354  0.1698 -0.3004  0.1361
    1DIPC   GL1 8931  22.286   1.663   5.976 -0.0550  0.0876  0.3029
    1DIPC   GL2 8932  22.514   1.451   5.890 -0.2101 -0.0899 -0.1014
    1DIPC   C1A 8933  22.574   1.895   5.599  0.0844 -0.0025  0.0052
    1DIPC   D2A 8934  22.711   2.001   5.129  0.2244 -0.1691 -0.0507
    1DIPC   D3A 8935  22.571   2.314   4.829  0.0229  0.0947 -0.1973
    1DIPC   C4A 8936  22.314   2.652   4.975 -0.0413 -0.2218  0.1426
    1DIPC   C1B 8937  22.294   1.273   5.590  0.1291 -0.0601 -0.2283
    1DIPC   D2B 8938  22.538   1.164   5.035 -0.0706  0.1952  0.0410
    1DIPC   D3B 8939  22.903   1.086   4.789  0.2043  0.2295  0.1061
    1DIPC   C4B 8940  23.169   1.188   4.409 -0.1223  0.4663  0.0333
    1DIPC   NC3 8941   9.007   1.327   7.580  0.1006 -0.1292  0.2945
    1DIPC   PO4 8942   9.392   1.169   7.483 -0.0339 -0.2696 -0.0746
    1DIPC   GL1 8943   9.714   1.181   6.957  0.3213 -0.3199  0.1631
    1DIPC   GL2 8944   9.582   1.498   6.758 -0.0330  0.2622  0.4440
    1DIPC   C1A 8945   9.716   1.120   6.438  0.0223 -0.1106  0.0453
    1DIPC   D2A 8946   9.909   1.136   6.110  0.0629  0.1069  0.1217
    1DIPC   D3A 8947   9.623   1.196   5.815 -0.0162  0.1628  0.1709
    1DIPC   C4A 8948   9.579   1.499   5.631 -0.1072  0.1056 -0.2205
    1DIPC   C1B 8949   9.206   1.681   6.544  0.1159 -0.0980 -0.0010
    1DIPC   D2B 8950   8.832   1.500   6.467 -0.6189  0.1394  0.0239
    1DIPC   D3B 8951   8.665   1.917   6.603 -0.3011 -0.0992  0.4277
    1DIPC   C4B 8952   8.549   2.378   6.334  0.3148 -0.1607 -0.3231
    1DIPC   NC3 8953   6.442  22.866   5.986  0.2642 -0.4191  0.0280
    1DIPC   PO4 8954   6.287  23.236   6.091  0.3059  0.3099 -0.0683
    1DIPC   GL1 8955   6.340  23.224   5.645 -0.0964  0.1069 -0.0508
    1DIPC   GL2 8956   6.134  23.203   5.450 -0.2687 -0.1965  0.0250
    1DIPC   C1A 8957   6.560  23.221   5.227  0.1827 -0.0660  0.0040
    1DIPC   D2A 8958   6.750  22.985   4.965  0.0705 -0.2816  0.1795
    1DIPC   D3A 8959   7.113  23.086   5.255 -0.2069  0.2533 -0.0777
    1DIPC   C4A 8960   7.522  22.872   5.200 -0.0277  0.0514  0.1134
    1DIPC   C1B 8961   6.033  23.271   5.048 -0.1185 -0.1694  0.1198
    1DIPC   D2B 8962   5.954  23.611   4.760 -0.2642  0.0713  0.3192
    1DIPC   D3B 8963   5.993  23.349   4.352 -0.2742  0.0431  0.3274
    1DIPC   C4B 8964   5.639  23.025   4.260 -0.2212 -0.1034 -0.0891
    1DIPC   NC3 8965  27.597  22.235   6.977 -0.1795 -0.2649 -0.1260
    1DIPC   PO4 8966  27.472  21.943   6.674  0.0354 -0.2867 -0.1064
    1DIPC   GL1 8967  27.429  21.929   6.265 -0.1551 -0.0217  0.0379
    1DIPC   GL2 8968  27.473  21.575   6.218  0.3657  0.0707 -0.0015
    1DIPC   C1A 8969  27.263  21.862   5.887  0.1348 -0.0691  0.4269
    1DIPC   D2A 8970  27.101  21.854   5.443 -0.1262  0.1149 -0.1575
    1DIPC   D3A 8971  27.502  22.076   5.421 -0.1244 -0.0404 -0.0757
    1DIPC   C4A 8972  27.894  22.180   5.481 -0.1283 -0.0376 -0.2627
    1DIPC   C1B 8973  27.380  21.440   5.710  0.2450 -0.2588  0.1049
    1DIPC   D2B 8974  27.509  21.496   5.323  0.0546  0.0860  0.3787
    1DIPC   D3B 8975  27.426  21.768   4.935  0.1971 -0.3596  0.0768
    1DIPC   C4B 8976  27.223  21.489   4.759 -0.0327 -0.0098  0.1213
    1DIPC   NC3 8977   5.959  19.627   5.874  0.1503 -0.1083 -0.2173
    1DIPC   PO4 8978   5.909  19.111   5.913 -0.2783 -0.1626 -0.2193
    1DIPC   GL1 8979   6.027  19.028   5.523 -0.0296  0.0856 -0.0684
    1DIPC   GL2 8980   5.872  18.746   5.444 -0.3533  0.1293  0.0687
    1DIPC   C1A 8981   6.278  18.867   5.141  0.1630 -0.3076  0.0763
    1DIPC   D2A 8982   6.512  18.859   4.752 -0.0364  0.1300  0.1062
    1DIPC   D3A 8983   6.841  18.885   4.459 -0.0881 -0.1270 -0.1307
    1DIPC   C4A 8984   6.681  18.658   4.083  0.1568  0.1715  0.0400
    1DIPC   C1B 8985   5.785  18.878   5.073 -0.0530 -0.0646 -0.2300
    1DIPC   D2B 8986   5.710  19.229   4.946  0.0922  0.3096 -0.0861
    1DIPC   D3B 8987   5.347  19.458   4.877  0.1326 -0.0001 -0.0210
    1DIPC   C4B 8988   5.011  19.135   4.756  0.3542  0.1348  0.1156
    1DIPC   NC3 8989  27.415  14.691   5.803  0.1450  0.0911  0.2561
    1DIPC   PO4 8990  27.696  14.454   5.569  0.1385  0.1385  0.0258
    1DIPC   GL1 8991  27.915  14.570   5.258  0.1216 -0.0270  0.0184
    1DIPC   GL2 8992  27.763  14.540   4.940  0.0497  0.2213 -0.1655
    1DIPC   C1A 8993  28.021  15.002   5.003 -0.1810 -0.1509  0.1943
    1DIPC   D2A 8994  28.298  15.229   4.684 -0.2614  0.3385 -0.3923
    1DIPC   D3A 8995  28.344  15.593   4.529 -0.0050  0.1081  0.0307
    1DIPC   C4A 8996  28.542  15.525   4.085  0.0643  0.1952 -0.0498
    1DIPC   C1B 8997  27.974  14.715   4.562 -0.0441  0.0975 -0.0538
    1DIPC   D2B 8998  28.311  14.799   4.555  0.1622  0.2881  0.0321
    1DIPC   D3B 8999  28.400  14.393   4.583  0.2978 -0.3339  0.2570
    1DIPC   C4B 9000  28.122  14.187   4.824 -0.2266 -0.0611  0.2720
    1DIPC   NC3 9001  19.477  18.822   7.160  0.2026 -0.1294 -0.3422
    1DIPC   PO4 9002  19.720  19.159   7.172  0.0014 -0.2214 -0.2544
    1DIPC   GL1 9003  19.838  19.302   6.735 -0.4687 -0.2139  0.0915
    1DIPC   GL2 9004  19.907  19.707   6.706 -0.0703  0.5745  0.1937
    1DIPC   C1A 9005  20.193  19.440   6.413 -0.1366  0.3398  0.0378
    1DIPC   D2A 9006  20.455  19.614   6.137 -0.0955 -0.3914  0.3479
    1DIPC   D3A 9007  20.276  19.642   5.675 -0.1360  0.0780  0.1425
    1DIPC   C4A 9008  19.995  19.382   5.521  0.2460 -0.1282 -0.1663
    1DIPC   C1B 9009  19.654  20.091   6.719 -0.2735  0.3458  0.4219
    1DIPC   D2B 9010  19.789  20.438   6.730  0.0538 -0.1764  0.0939
    1DIPC   D3B 9011  19.679  20.560   6.374  0.1922  0.1954  0.0089
    1DIPC   C4B 9012  19.761  20.322   6.005 -0.2706 -0.0603 -0.1797
    1DIPC   NC3 9013   8.520  15.578   6.895 -0.2777  0.2942 -0.2550
    1DIPC   PO4 9014   8.226  15.561   6.549  0.0182 -0.1151 -0.0642
    1DIPC   GL1 9015   7.869  15.708   6.255 -0.0659 -0.2455  0.0223
    1DIPC   GL2 9016   7.762  15.487   6.168 -0.0221 -0.1838 -0.3358
    1DIPC   C1A 9017   7.574  15.889   5.971  0.1571  0.0487 -0.1953
    1DIPC   D2A 9018   7.426  15.753   5.546 -0.2931  0.0026 -0.0109
    1DIPC   D3A 9019   7.787  15.586   5.600  0.0732  0.0040  0.1479
    1DIPC   C4A 9020   8.127  15.806   5.855  0.1591  0.2095  0.0105
    1DIPC   C1B 9021   7.446  15.319   5.878  0.1677 -0.0553 -0.2357
    1DIPC   D2B 9022   7.366  14.886   5.751 -0.2856  0.0062 -0.2673
    1DIPC   D3B 9023   7.347  14.639   5.278 -0.3291 -0.0229  0.1697
    1DIPC   C4B 9024   7.437  15.035   4.917  0.0607 -0.0585 -0.0933
    1DIPC   NC3 9025   5.579   0.961   6.924 -0.1096 -0.0020 -0.0908
    1DIPC   PO4 9026   5.278   1.218   6.834  0.1846  0.1156 -0.0215
    1DIPC   GL1 9027   5.171   1.143   6.427  0.0992  0.0309 -0.3026
    1DIPC   GL2 9028   5.442   1.369   6.219 -0.0596 -0.2513 -0.3110
    1DIPC   C1A 9029   5.182   0.913   6.132 -0.2666 -0.0043  0.2338
    1DIPC   D2A 9030   5.404   0.858   5.699  0.3123 -0.0427 -0.4343
    1DIPC   D3A 9031   5.736   0.756   5.948 -0.0976 -0.2976  0.4375
    1DIPC   C4A 9032   5.636   0.814   6.263 -0.0583  0.0087 -0.1780
    1DIPC   C1B 9033   5.376   1.361   5.767  0.0836 -0.3730  0.1949
    1DIPC   D2B 9034   5.269   1.450   5.369  0.0315 -0.1622  0.0269
    1DIPC   D3B 9035   5.223   1.031   5.089  0.0513 -0.2827  0.1532
    1DIPC   C4B 9036   5.270   0.611   5.247  0.1445 -0.2603 -0.0325
    1DIPC   NC3 9037  28.620   0.217   6.373  0.0285  0.1002 -0.0870
    1DIPC   PO4 9038  28.167   0.305   6.448  0.0730  0.0409  0.2161
    1DIPC   GL1 9039  27.965   0.199   6.079 -0.1471  0.2711  0.0144
    1DIPC   GL2 9040  27.690   0.307   5.949  0.0467  0.0208  0.0101
    1DIPC   C1A 9041  28.368   0.230   5.655 -0.1186 -0.1712 -0.1984
    1DIPC   D2A 9042  28.351   0.395   5.279 -0.2887  0.4012  0.2155
    1DIPC   D3A 9043  28.319   0.049   4.955 -0.2058  0.3245  0.0284
    1DIPC   C4A 9044  28.701  -0.077   4.788 -0.1050  0.2232 -0.1727
    1DIPC   C1B 9045  27.251   0.151   5.763 -0.0796  0.2492 -0.0572
    1DIPC   D2B 9046  26.959   0.339   5.555  0.2574  0.1625 -0.1333
    1DIPC   D3B 9047  26.891   0.800   5.623  0.0572 -0.0976  0.0158
    1DIPC   C4B 9048  26.546   1.058   5.521 -0.0062 -0.0838 -0.0186
    1DIPC   NC3 9049  20.391  28.425   7.020 -0.1725  0.3028 -0.5124
    1DIPC   PO4 9050  20.365  28.001   6.990 -0.0324 -0.1271 -0.0770
    1DIPC   GL1 9051  20.456  28.225   6.534 -0.0529  0.0350  0.2192
    1DIPC   GL2 9052  20.177  28.308   6.426  0.0258 -0.0300 -0.3832
    1DIPC   C1A 9053  20.472  27.994   6.118 -0.1521 -0.3271 -0.1715
    1DIPC   D2A 9054  20.450  28.086   5.721 -0.0277  0.0591  0.2135
    1DIPC   D3A 9055  20.302  28.108   5.247  0.3498 -0.1906  0.0972
    1DIPC   C4A 9056  20.106  28.434   4.948 -0.0490  0.3942  0.1025
    1DIPC   C1B 9057  19.879  28.361   6.019 -0.3312  0.2687  0.4506
    1DIPC   D2B 9058  19.991  28.262   5.525 -0.1590  0.2064  0.0891
    1DIPC   D3B 9059  20.325  28.588   5.509 -0.0752  0.1163 -0.2950
    1DIPC   C4B 9060  20.204  28.970   5.414 -0.0983  0.1557 -0.0714
    1DIPC   NC3 9061  15.811   4.402   7.259  0.0414 -0.1045  0.0992
    1DIPC   PO4 9062  16.220   4.580   7.326  0.2506 -0.0535  0.2352
    1DIPC   GL1 9063  15.955   4.802   7.036 -0.3407  0.1027 -0.0422
    1DIPC   GL2 9064  15.995   5.001   7.101  0.0909 -0.0904  0.1550
    1DIPC   C1A 9065  15.649   4.884   6.713 -0.1575  0.2073 -0.1013
    1DIPC   D2A 9066  15.431   5.065   6.315 -0.3620 -0.0430 -0.0190
    1DIPC   D3A 9067  15.827   5.076   6.109  0.1774 -0.0381  0.3374
    1DIPC   C4A 9068  16.033   5.339   5.833  0.0747  0.1529 -0.5723
    1DIPC   C1B 9069  16.140   5.163   6.735  0.0787 -0.1503  0.3154
    1DIPC   D2B 9070  16.066   5.453   6.311  0.0526  0.1162 -0.0283
    1DIPC   D3B 9071  16.048   5.775   5.971  0.0956 -0.0817 -0.1168
    1DIPC   C4B 9072  15.963   6.253   6.139  0.1664  0.3131  0.2823
    1DIPC   NC3 9073  15.976  24.749   6.992  0.1814  0.1041 -0.0333
    1DIPC   PO4 9074  15.895  24.970   6.673  0.2064  0.1322 -0.0587
    1DIPC   GL1 9075  15.593  25.155   6.338  0.1547  0.1040 -0.1496
    1DIPC   GL2 9076  15.314  25.343   6.342 -0.5831  0.3966 -0.2048
    1DIPC   C1A 9077  15.522  25.050   5.876  0.2902  0.1245  0.0726
    1DIPC   D2A 9078  15.766  25.077   5.581  0.1587 -0.0439  0.2639
    1DIPC   D3A 9079  15.962  25.492   5.804  0.1021  0.0241  0.0322
    1DIPC   C4A 9080  16.388  25.285   5.911 -0.1540  0.1539  0.2269
    1DIPC   C1B 9081  15.409  25.551   6.015 -0.2403  0.1139 -0.1918
    1DIPC   D2B 9082  15.340  25.462   5.572 -0.0385  0.0576  0.1710
    1DIPC   D3B 9083  14.953  25.643   5.399  0.1245  0.0415 -0.1888
    1DIPC   C4B 9084  14.594  25.634   5.660  0.0717 -0.0972  0.3068
    1DIPC   NC3 9085   9.609   0.757   7.700  0.0881 -0.0403  0.0871
    1DIPC   PO4 9086   9.931   0.579   7.516  0.1640  0.0054  0.0234
    1DIPC   GL1 9087   9.996   0.747   7.048 -0.1617 -0.0846  0.1587
    1DIPC   GL2 9088  10.356   0.570   6.964  0.0050 -0.0352 -0.1191
    1DIPC   C1A 9089   9.670   0.645   6.729 -0.0706 -0.0081  0.2660
    1DIPC   D2A 9090   9.509   0.544   6.305  0.1924  0.0302 -0.0617
    1DIPC   D3A 9091   9.114   0.798   6.254 -0.0824 -0.2030  0.0329
    1DIPC   C4A 9092   9.236   0.719   5.744  0.0844  0.0277 -0.0040
    1DIPC   C1B 9093  10.605   0.735   6.566 -0.0527 -0.0256  0.2121
    1DIPC   D2B 9094  10.659   0.941   6.151 -0.1429 -0.4428  0.2472
    1DIPC   D3B 9095  10.288   0.892   5.925  0.2929 -0.0307  0.1158
    1DIPC   C4B 9096  10.148   1.194   5.646  0.1356 -0.1512  0.2727
    1DIPC   NC3 9097  26.686   0.843   6.093 -0.0027  0.0205  0.2939
    1DIPC   PO4 9098  26.172   1.030   6.076 -0.2348 -0.0757  0.2459
    1DIPC   GL1 9099  26.080   1.023   5.627  0.0380 -0.0728 -0.1870
    1DIPC   GL2 9100  26.088   0.648   5.765  0.0012 -0.1055  0.1174
    1DIPC   C1A 9101  26.262   0.863   5.202  0.1548 -0.2078  0.0361
    1DIPC   D2A 9102  26.694   0.757   5.172 -0.2310  0.0948  0.2702
    1DIPC   D3A 9103  26.813   0.327   5.086 -0.1910  0.1277 -0.0093
    1DIPC   C4A 9104  27.225   0.339   5.146  0.2889 -0.5211 -0.1108
    1DIPC   C1B 9105  25.939   0.271   5.529  0.1270 -0.1584  0.2692
    1DIPC   D2B 9106  25.750  -0.034   5.578  0.0402 -0.3414 -0.2511
    1DIPC   D3B 9107  26.134  -0.195   5.481  0.2064 -0.0833 -0.3317
    1DIPC   C4B 9108  26.606  -0.091   5.449  0.1424  0.0932  0.3086
    1DIPC   NC3 9109   4.636  18.550   5.876 -0.2058 -0.0314 -0.0654
    1DIPC   PO4 9110   4.823  18.178   5.672  0.0724 -0.3192 -0.1043
    1DIPC   GL1 9111   4.788  17.871   5.315  0.0135 -0.0446 -0.0976
    1DIPC   GL2 9112   4.938  17.610   5.411 -0.1298  0.1054  0.1452
    1DIPC   C1A 9113   4.693  17.575   4.974 -0.3504 -0.0480  0.1548
    1DIPC   D2A 9114   4.510  17.170   4.818  0.0800 -0.1884  0.2617
    1DIPC   D3A 9115   4.300  16.960   4.457  0.0960  0.0538 -0.2288
    1DIPC   C4A 9116   4.388  17.033   4.005 -0.0762 -0.0362 -0.0585
    1DIPC   C1B 9117   5.236  17.600   5.119  0.2781 -0.0084 -0.0625
    1DIPC   D2B 9118   5.595  17.421   4.877 -0.0486  0.0642 -0.0761
    1DIPC   D3B 9119   5.644  16.928   4.736 -0.2881  0.1349 -0.0874
    1DIPC   C4B 9120   5.917  16.756   4.350 -0.2410 -0.0368 -0.0305
    1DIPC   NC3 9121  23.759   6.090   5.957 -0.3183  0.4854  0.0752
    1DIPC   PO4 9122  24.116   5.825   6.063  0.0208  0.1315  0.2219
    1DIPC   GL1 9123  24.121   5.976   5.615  0.0104  0.1143 -0.2391
    1DIPC   GL2 9124  24.418   6.209   5.582 -0.3886 -0.1249 -0.3639
    1DIPC   C1A 9125  23.802   6.249   5.323  0.0780  0.1470  0.1351
    1DIPC   D2A 9126  23.867   6.293   4.871  0.1270  0.1714  0.0208
    1DIPC   D3A 9127  23.599   5.892   4.689 -0.1494 -0.2688  0.1429
    1DIPC   C4A 9128  23.269   5.977   4.347  0.0945  0.3287 -0.0603
    1DIPC   C1B 9129  24.263   6.183   5.189  0.1729  0.0386  0.0776
    1DIPC   D2B 9130  24.366   6.267   4.658  0.2262  0.0100 -0.1031
    1DIPC   D3B 9131  24.165   6.004   4.290  0.1158 -0.2231 -0.2630
    1DIPC   C4B 9132  24.217   5.571   4.276  0.1296 -0.2335 -0.1900
    1DIPC   NC3 9133  27.489  21.443   6.721  0.0279  0.1204  0.3143
    1DIPC   PO4 9134  27.566  21.135   6.400  0.0424  0.2567 -0.0111
    1DIPC   GL1 9135  27.150  21.198   6.079 -0.0186 -0.0469 -0.1298
    1DIPC   GL2 9136  26.883  21.118   6.084  0.1635 -0.1987 -0.2854
    1DIPC   C1A 9137  26.854  21.457   5.706  0.1228 -0.0015 -0.0998
    1DIPC   D2A 9138  26.691  21.901   5.713  0.0135  0.3392  0.0130
    1DIPC   D3A 9139  26.574  21.690   5.254  0.0269 -0.1432 -0.0675
    1DIPC   C4A 9140  26.452  21.454   5.003  0.1705 -0.3673 -0.2795
    1DIPC   C1B 9141  26.695  20.972   5.749  0.3070 -0.0139  0.0986
    1DIPC   D2B 9142  26.506  21.069   5.320 -0.1254  0.2353  0.0967
    1DIPC   D3B 9143  26.091  20.860   5.129 -0.1107 -0.0974  0.3412
    1DIPC   C4B 9144  26.036  20.536   4.957 -0.3533 -0.2869  0.0730
    1DIPC   NC3 9145   6.863  10.027   6.483  0.3769  0.0218 -0.0536
    1DIPC   PO4 9146   6.709  10.411   6.530  0.1790 -0.2928 -0.0750
    1DIPC   GL1 9147   6.881  10.561   6.234 -0.2473 -0.0569 -0.2898
    1DIPC   GL2 9148   6.957  10.299   5.992 -0.2270 -0.0491 -0.0184
    1DIPC   C1A 9149   6.745  10.830   5.870  0.0364 -0.0574 -0.0510
    1DIPC   D2A 9150   6.514  10.855   5.420  0.0979  0.1020  0.0729
    1DIPC   D3A 9151   6.582  11.310   5.222  0.2222 -0.3123 -0.0868
    1DIPC   C4A 9152   6.832  11.503   4.875  0.1754  0.1426 -0.4948
    1DIPC   C1B 9153   7.340  10.146   5.708  0.2413 -0.1152  0.0903
    1DIPC   D2B 9154   7.508  10.465   5.378 -0.1518  0.1380 -0.0381
    1DIPC   D3B 9155   7.082  10.313   5.213  0.0286 -0.2330 -0.0663
    1DIPC   C4B 9156   6.909  10.120   4.804 -0.3531  0.0633  0.2665
    1DIPC   NC3 9157   3.938  21.934   5.815 -0.2134  0.0579 -0.2335
    1DIPC   PO4 9158   3.567  21.822   5.719 -0.0750  0.0249 -0.3285
    1DIPC   GL1 9159   3.386  22.097   5.492 -0.1285 -0.1233  0.2951
    1DIPC   GL2 9160   3.655  22.410   5.392 -0.0470 -0.1594 -0.1107
    1DIPC   C1A 9161   2.980  22.293   5.284  0.0034 -0.1442  0.3811
    1DIPC   D2A 9162   2.938  22.342   4.802 -0.0696 -0.1641 -0.1037
    1DIPC   D3A 9163   3.025  21.897   4.999 -0.1591 -0.0461  0.3748
    1DIPC   C4A 9164   3.140  21.530   4.800  0.1631  0.0528 -0.1242
    1DIPC   C1B 9165   3.548  22.101   5.028 -0.0452 -0.3383  0.0227
    1DIPC   D2B 9166   3.371  21.998   4.638  0.0743  0.0826  0.0500
    1DIPC   D3B 9167   3.007  22.026   4.367 -0.0050 -0.1343  0.2598
    1DIPC   C4B 9168   3.006  21.973   3.959  0.0811  0.3238  0.1384
    1DIPC   NC3 9169  17.893  24.697   6.906  0.0527  0.0641  0.1263
    1DIPC   PO4 9170  18.259  24.902   6.798  0.2627 -0.1800 -0.2230
    1DIPC   GL1 9171  18.223  24.904   6.354  0.0574 -0.3676 -0.1058
    1DIPC   GL2 9172  18.385  24.699   6.166  0.3833 -0.2156  0.0351
    1DIPC   C1A 9173  18.099  25.223   6.129 -0.0191 -0.1843 -0.0127
    1DIPC   D2A 9174  18.139  25.537   5.796  0.0001  0.1622 -0.4339
    1DIPC   D3A 9175  18.512  25.620   5.544  0.1173 -0.1528 -0.1158
    1DIPC   C4A 9176  18.646  25.411   5.167  0.4983  0.2260  0.1555
    1DIPC   C1B 9177  18.758  24.616   5.757 -0.1603 -0.0697  0.3477
    1DIPC   D2B 9178  19.169  24.657   5.564 -0.0912 -0.0585  0.0200
    1DIPC   D3B 9179  19.110  24.994   5.863 -0.2145 -0.1182 -0.1807
    1DIPC   C4B 9180  19.325  25.435   6.023 -0.1379 -0.0887 -0.2628
    1DIPC   NC3 9181  17.963  28.883   7.440  0.2090  0.2776  0.3147
    1DIPC   PO4 9182  17.569  29.038   7.259  0.2151 -0.1535  0.2754
    1DIPC   GL1 9183  17.596  29.170   6.732  0.1004  0.5433  0.0401
    1DIPC   GL2 9184  17.865  28.991   6.580  0.3483 -0.3374 -0.0871
    1DIPC   C1A 9185  17.303  29.032   6.431 -0.2354 -0.2146  0.1765
    1DIPC   D2A 9186  16.968  28.959   6.120 -0.2484 -0.2295  0.1135
    1DIPC   D3A 9187  17.173  28.558   6.331  0.0652 -0.0024 -0.0724
    1DIPC   C4A 9188  17.072  28.381   6.058  0.0600 -0.0948 -0.1289
    1DIPC   C1B 9189  18.016  29.064   6.190 -0.0588  0.0994  0.1999
    1DIPC   D2B 9190  18.157  29.042   5.711  0.2368  0.1291 -0.3165
    1DIPC   D3B 9191  18.340  28.653   5.413  0.2049  0.1411 -0.1114
    1DIPC   C4B 9192  18.017  28.463   5.145 -0.1381 -0.3317 -0.0821
    1DIPC   NC3 9193  21.202  24.251   6.951  0.0434  0.3896 -0.1144
    1DIPC   PO4 9194  21.007  23.946   6.601  0.0132  0.2567 -0.1079
    1DIPC   GL1 9195  21.051  23.805   6.215  0.1036 -0.1234  0.0876
    1DIPC   GL2 9196  21.125  24.090   6.081 -0.3712 -0.0904 -0.2351
    1DIPC   C1A 9197  21.120  23.700   5.804 -0.0104 -0.1575 -0.1149
    1DIPC   D2A 9198  21.365  23.426   5.598 -0.0990  0.1950  0.2340
    1DIPC   D3A 9199  21.328  23.202   5.250  0.2306 -0.4363  0.2351
    1DIPC   C4A 9200  21.635  22.825   5.124 -0.1531 -0.1552  0.1371
    1DIPC   C1B 9201  21.442  24.086   5.772  0.4942  0.1728  0.0444
    1DIPC   D2B 9202  21.346  23.890   5.390 -0.0978 -0.0459  0.2269
    1DIPC   D3B 9203  20.975  23.931   5.197  0.2604  0.3416  0.1329
    1DIPC   C4B 9204  20.733  23.947   4.793 -0.0321 -0.1345  0.0172
    1DIPC   NC3 9205   1.672  23.904   6.617  0.4325 -0.1582 -0.1613
    1DIPC   PO4 9206   1.800  24.401   6.440  0.1644  0.1258  0.5028
    1DIPC   GL1 9207   1.879  24.111   6.069  0.2518 -0.1700 -0.2062
    1DIPC   GL2 9208   2.173  23.833   5.971 -0.0370  0.4320  0.0463
    1DIPC   C1A 9209   1.759  23.749   5.744  0.1083 -0.0328 -0.1790
    1DIPC   D2A 9210   1.789  23.722   5.317  0.2409  0.3009  0.0575
    1DIPC   D3A 9211   1.620  24.091   5.274 -0.0273 -0.0506  0.1040
    1DIPC   C4A 9212   1.606  24.207   5.671  0.0380  0.0677 -0.1197
    1DIPC   C1B 9213   2.135  24.140   5.629 -0.4265 -0.0974  0.0112
    1DIPC   D2B 9214   2.015  24.309   5.185  0.1397 -0.0497 -0.0226
    1DIPC   D3B 9215   2.196  24.315   4.805 -0.0476  0.1726 -0.1098
    1DIPC   C4B 9216   2.107  24.687   4.628 -0.0970 -0.1493  0.0604
    1DIPC   NC3 9217   2.713  23.193   6.073 -0.0248 -0.1318 -0.1339
    1DIPC   PO4 9218   3.030  23.014   5.824  0.4209  0.2034 -0.1877
    1DIPC   GL1 9219   3.223  23.038   5.412  0.2215  0.1935  0.2446
    1DIPC   GL2 9220   3.506  23.008   5.328  0.2236 -0.1227 -0.0974
    1DIPC   C1A 9221   3.060  23.353   5.121 -0.0189 -0.0168 -0.1164
    1DIPC   D2A 9222   3.084  23.379   4.605 -0.2165  0.0036 -0.0904
    1DIPC   D3A 9223   3.119  23.745   4.719  0.0010  0.1691 -0.1254
    1DIPC   C4A 9224   3.082  23.906   5.140 -0.1699 -0.1095  0.3184
    1DIPC   C1B 9225   3.471  23.075   4.935  0.1911 -0.0976  0.0537
    1DIPC   D2B 9226   3.174  22.846   4.645  0.1963  0.1701  0.3768
    1DIPC   D3B 9227   3.268  23.095   4.152  0.2411  0.4940 -0.0673
    1DIPC   C4B 9228   3.077  23.493   4.127  0.1114 -0.0158 -0.0044
    1DIPC   NC3 9229  24.325  15.432   5.932  0.2192 -0.1435  0.1685
    1DIPC   PO4 9230  24.546  15.553   5.498 -0.1711  0.0892 -0.0254
    1DIPC   GL1 9231  24.801  15.803   5.240 -0.0683 -0.0237  0.2240
    1DIPC   GL2 9232  24.760  15.680   4.928 -0.2204 -0.0281 -0.0607
    1DIPC   C1A 9233  24.965  16.182   5.025  0.2020 -0.2404  0.1913
    1DIPC   D2A 9234  25.311  16.411   5.111  0.1106 -0.2300  0.0412
    1DIPC   D3A 9235  25.309  16.460   4.636  0.2170  0.3221 -0.0229
    1DIPC   C4A 9236  25.624  16.230   4.442 -0.1271 -0.0620  0.1876
    1DIPC   C1B 9237  25.091  15.482   4.692  0.2653 -0.0548 -0.2783
    1DIPC   D2B 9238  25.493  15.549   4.655 -0.1640  0.2433 -0.0312
    1DIPC   D3B 9239  25.737  15.744   4.315  0.1836  0.3342 -0.0601
    1DIPC   C4B 9240  25.668  15.945   4.015  0.2026  0.1470 -0.0193
    1DIPC   NC3 9241  12.112   7.410   7.132 -0.0576  0.2184  0.0873
    1DIPC   PO4 9242  11.656   7.350   7.112 -0.0461 -0.0238  0.2573
    1DIPC   GL1 9243  11.593   7.097   6.696 -0.1920 -0.0074 -0.1363
    1DIPC   GL2 9244  11.675   6.732   6.718  0.0486  0.2617  0.1635
    1DIPC   C1A 9245  11.654   7.270   6.197 -0.0378  0.3859 -0.1165
    1DIPC   D2A 9246  11.929   7.178   5.903  0.1948  0.1250 -0.4694
    1DIPC   D3A 9247  12.333   7.259   5.907 -0.2993  0.1184  0.3847
    1DIPC   C4A 9248  12.394   7.420   6.179  0.0513 -0.2055 -0.3869
    1DIPC   C1B 9249  11.659   6.814   6.283 -0.0313 -0.0237 -0.1074
    1DIPC   D2B 9250  11.532   6.821   5.829  0.0793  0.0547 -0.1394
    1DIPC   D3B 9251  11.420   6.443   5.982 -0.1515  0.1241  0.1243
    1DIPC   C4B 9252  11.588   6.057   5.714  0.0773  0.0779 -0.0876
    1DIPC   NC3 9253  21.217  11.411   6.544  0.1933 -0.2199 -0.1196
    1DIPC   PO4 9254  21.326  11.764   6.609 -0.1462  0.0736 -0.1020
    1DIPC   GL1 9255  21.196  11.868   6.284  0.0888 -0.0145 -0.1435
    1DIPC   GL2 9256  21.319  11.679   6.110 -0.4744 -0.0711 -0.2045
    1DIPC   C1A 9257  20.860  11.897   6.011  0.0807 -0.1588  0.3589
    1DIPC   D2A 9258  20.621  12.001   5.729  0.0579  0.0071 -0.0419
    1DIPC   D3A 9259  20.746  11.745   5.321  0.1132 -0.0424  0.0445
    1DIPC   C4A 9260  21.204  11.722   5.175 -0.0277  0.4961 -0.3225
    1DIPC   C1B 9261  21.160  11.571   5.725 -0.1054  0.0040 -0.4196
    1DIPC   D2B 9262  20.992  11.311   5.440  0.2542  0.1409  0.3104
    1DIPC   D3B 9263  21.033  11.251   4.988  0.1733 -0.1219  0.1122
    1DIPC   C4B 9264  20.703  11.300   4.635 -0.2466 -0.2558  0.2982
    1DIPC   NC3 9265   9.503  10.764   7.281 -0.1416 -0.1221 -0.2887
    1DIPC   PO4 9266   9.766  10.483   7.464 -0.1916 -0.0304 -0.2135
    1DIPC   GL1 9267   9.613  10.273   7.057 -0.0028  0.2907  0.0643
    1DIPC   GL2 9268   9.578  10.500   6.823 -0.0513  0.6002  0.0509
    1DIPC   C1A 9269   9.178  10.204   6.769 -0.2822  0.4202  0.0663
    1DIPC   D2A 9270   8.744  10.253   6.585 -0.1718  0.0083  0.1322
    1DIPC   D3A 9271   8.688  10.240   6.130  0.0109  0.3557  0.1244
    1DIPC   C4A 9272   8.877   9.959   5.868  0.0945 -0.1885  0.1938
    1DIPC   C1B 9273   9.617  10.483   6.419  0.0404 -0.0241  0.1919
    1DIPC   D2B 9274   9.717  10.566   6.028  0.1251 -0.0656  0.1129
    1DIPC   D3B 9275   9.377  10.310   5.930  0.0499  0.1178 -0.0903
    1DIPC   C4B 9276   9.151  10.187   6.224 -0.0759 -0.1277  0.0732
    1DIPC   NC3 9277   3.657  20.916   5.933 -0.0260  0.1195 -0.0486
    1DIPC   PO4 9278   4.087  20.609   5.928 -0.2043 -0.0795 -0.0589
    1DIPC   GL1 9279   3.792  20.704   5.509 -0.2841  0.0394  0.0118
    1DIPC   GL2 9280   3.882  20.503   5.292 -0.0327 -0.0754 -0.1192
    1DIPC   C1A 9281   3.545  20.976   5.210 -0.0953 -0.2133 -0.3398
    1DIPC   D2A 9282   3.410  21.448   5.233  0.2909  0.0337  0.0578
    1DIPC   D3A 9283   3.596  21.613   4.963 -0.2760 -0.1433 -0.4007
    1DIPC   C4A 9284   3.703  21.538   4.632  0.2219  0.0942 -0.1909
    1DIPC   C1B 9285   3.960  20.260   4.937  0.2724  0.0643  0.1386
    1DIPC   D2B 9286   3.706  20.242   4.589 -0.0124  0.1746 -0.2080
    1DIPC   D3B 9287   3.768  20.683   4.738 -0.0390 -0.0854  0.1860
    1DIPC   C4B 9288   3.457  21.071   4.762  0.2992 -0.2966  0.0902
    1DIPC   NC3 9289   4.316  26.675   6.857 -0.2025  0.0898  0.1687
    1DIPC   PO4 9290   3.945  26.735   6.745  0.2059 -0.0422  0.0761
    1DIPC   GL1 9291   3.903  26.420   6.370 -0.1114 -0.0092  0.0741
    1DIPC   GL2 9292   3.552  26.335   6.233  0.2316 -0.1994 -0.1403
    1DIPC   C1A 9293   4.234  26.200   6.081  0.1587 -0.0820  0.0058
    1DIPC   D2A 9294   4.541  25.896   6.107 -0.1321 -0.2996  0.2916
    1DIPC   D3A 9295   4.404  26.077   5.669  0.1838  0.1037  0.1075
    1DIPC   C4A 9296   4.026  25.892   5.368 -0.1431  0.0758  0.1679
    1DIPC   C1B 9297   3.721  26.239   5.881 -0.0019 -0.1927  0.1646
    1DIPC   D2B 9298   3.537  26.182   5.537 -0.0240  0.0982 -0.2517
    1DIPC   D3B 9299   3.259  25.936   5.382  0.2098  0.2870 -0.0781
    1DIPC   C4B 9300   3.058  26.021   4.893  0.0673  0.0239 -0.0532
    1DIPC   NC3 9301  24.446   3.623   5.812  0.0327 -0.1252 -0.0629
    1DIPC   PO4 9302  24.220   3.839   5.571  0.0956 -0.2387 -0.3656
    1DIPC   GL1 9303  24.185   3.578   5.253 -0.0972 -0.2989 -0.2668
    1DIPC   GL2 9304  23.956   3.500   5.264  0.0648  0.2846 -0.0312
    1DIPC   C1A 9305  24.151   3.327   4.864 -0.1180  0.0447  0.4694
    1DIPC   D2A 9306  23.988   2.910   4.600  0.1012 -0.2917  0.1933
    1DIPC   D3A 9307  23.770   2.528   4.332 -0.2306  0.0711 -0.1234
    1DIPC   C4A 9308  23.618   2.094   4.314 -0.0225  0.2670  0.1853
    1DIPC   C1B 9309  23.568   3.550   5.117  0.1430 -0.1526  0.5208
    1DIPC   D2B 9310  23.234   3.479   4.813  0.0727  0.0010 -0.0007
    1DIPC   D3B 9311  23.068   3.750   4.360 -0.0835  0.0245 -0.1759
    1DIPC   C4B 9312  22.629   3.550   4.208  0.2837 -0.1957 -0.1543
    1DIPC   NC3 9313  13.677  29.091   8.376  0.0387  0.0218 -0.3460
    1DIPC   PO4 9314  13.416  29.053   8.006  0.1510 -0.2729  0.1804
    1DIPC   GL1 9315  13.578  28.996   7.563 -0.1216 -0.0711 -0.0043
    1DIPC   GL2 9316  13.345  28.862   7.414  0.1510  0.0061  0.0943
    1DIPC   C1A 9317  13.516  29.296   7.114  0.2787  0.1852 -0.0308
    1DIPC   D2A 9318  13.228  29.328   6.770  0.0298  0.2194  0.1982
    1DIPC   D3A 9319  12.866  29.581   6.824  0.0517 -0.0094  0.1516
    1DIPC   C4A 9320  12.690  29.570   7.127 -0.1444  0.1485 -0.1389
    1DIPC   C1B 9321  13.283  28.860   6.995 -0.1623 -0.1220 -0.1979
    1DIPC   D2B 9322  13.515  28.895   6.641  0.1489 -0.0636 -0.0846
    1DIPC   D3B 9323  13.350  29.055   6.343 -0.0642 -0.1167 -0.2690
    1DIPC   C4B 9324  13.525  29.554   6.430  0.1229  0.0067 -0.1243
    1DIPC   NC3 9325  26.829  22.376   7.350 -0.0908  0.0599  0.4686
    1DIPC   PO4 9326  26.731  22.004   7.177  0.2210 -0.1617  0.4270
    1DIPC   GL1 9327  26.699  21.889   6.745  0.1591  0.0155  0.0000
    1DIPC   GL2 9328  26.973  21.922   6.521  0.2499 -0.3568  0.0061
    1DIPC   C1A 9329  26.446  22.035   6.480 -0.0190 -0.2094  0.1568
    1DIPC   D2A 9330  26.220  21.903   6.077 -0.2222  0.1422 -0.1976
    1DIPC   D3A 9331  26.222  22.117   5.634 -0.3281  0.1129  0.2139
    1DIPC   C4A 9332  26.606  22.396   5.576  0.0972  0.2216  0.3134
    1DIPC   C1B 9333  26.866  22.023   6.157  0.2722 -0.0266  0.1973
    1DIPC   D2B 9334  26.540  22.367   6.133 -0.3532  0.2294  0.3279
    1DIPC   D3B 9335  26.766  22.727   6.100  0.4309  0.1967  0.3327
    1DIPC   C4B 9336  26.939  22.802   5.672  0.0590  0.0904  0.1897
    1DIPC   NC3 9337   6.961  19.767   5.913 -0.1812  0.1309  0.1149
    1DIPC   PO4 9338   6.910  19.247   5.872  0.4208  0.2011  0.0591
    1DIPC   GL1 9339   6.990  19.261   5.468 -0.0578 -0.2797  0.0634
    1DIPC   GL2 9340   7.168  19.593   5.388 -0.2141  0.0202 -0.2957
    1DIPC   C1A 9341   6.818  19.015   5.168 -0.2787  0.0610  0.4708
    1DIPC   D2A 9342   6.677  18.560   5.155  0.0030  0.0922 -0.3840
    1DIPC   D3A 9343   6.783  18.300   4.704 -0.2230  0.1075  0.3589
    1DIPC   C4A 9344   7.056  17.901   4.613  0.1108  0.2103 -0.3885
    1DIPC   C1B 9345   7.175  19.337   4.998  0.0600  0.0168 -0.1858
    1DIPC   D2B 9346   7.183  18.998   4.735 -0.0708 -0.0190  0.1220
    1DIPC   D3B 9347   7.181  18.698   4.989  0.2830  0.4573 -0.2522
    1DIPC   C4B 9348   7.199  18.290   4.947  0.0794 -0.1969  0.0169
    1DIPC   NC3 9349  14.636   1.861   7.384 -0.0503  0.0366  0.0952
    1DIPC   PO4 9350  14.239   2.055   7.158  0.4365 -0.1856 -0.3128
    1DIPC   GL1 9351  14.264   1.759   6.694  0.0351  0.1644  0.1379
    1DIPC   GL2 9352  14.475   1.899   6.541 -0.0141  0.1065 -0.0792
    1DIPC   C1A 9353  14.350   1.341   6.468  0.0561 -0.0601 -0.2464
    1DIPC   D2A 9354  14.433   0.972   6.287  0.0378  0.3398  0.0749
    1DIPC   D3A 9355  14.808   0.953   6.142  0.1251 -0.0608  0.1291
    1DIPC   C4A 9356  15.004   0.618   5.882  0.0292 -0.2451  0.0430
    1DIPC   C1B 9357  14.573   1.744   6.137 -0.1668  0.1993  0.1083
    1DIPC   D2B 9358  14.544   1.379   5.920 -0.4135 -0.3075 -0.0801
    1DIPC   D3B 9359  14.138   1.282   5.956 -0.1573 -0.1501 -0.0012
    1DIPC   C4B 9360  13.926   1.079   6.217  0.1156  0.1982  0.1233
    1DIPC   NC3 9361  24.325   6.779   6.425 -0.0089  0.1597  0.2131
    1DIPC   PO4 9362  24.697   7.052   6.160 -0.0976  0.2038  0.0899
    1DIPC   GL1 9363  24.734   7.072   5.786 -0.1477  0.0324  0.0318
    1DIPC   GL2 9364  24.494   7.118   5.545  0.2480  0.0120  0.1426
    1DIPC   C1A 9365  25.012   6.992   5.396 -0.2965  0.1675  0.1699
    1DIPC   D2A 9366  25.378   7.056   5.241 -0.1362 -0.0312  0.1763
    1DIPC   D3A 9367  25.350   7.139   4.756  0.2688  0.0777 -0.0449
    1DIPC   C4A 9368  24.965   7.173   4.842  0.2978 -0.2247 -0.0138
    1DIPC   C1B 9369  24.171   7.212   5.300 -0.1669  0.0989  0.2434
    1DIPC   D2B 9370  23.880   7.245   4.871 -0.0563  0.1014  0.0828
    1DIPC   D3B 9371  24.284   7.222   4.577 -0.0485 -0.0665  0.0429
    1DIPC   C4B 9372  24.557   6.848   4.618  0.1499 -0.0131  0.2519
    1DIPC   NC3 9373  27.256   4.421   6.083 -0.0257  0.0466  0.3516
    1DIPC   PO4 9374  27.066   4.756   6.200  0.1501 -0.2927 -0.0975
    1DIPC   GL1 9375  27.093   4.761   5.703  0.1438 -0.3812 -0.1002
    1DIPC   GL2 9376  27.140   4.469   5.605  0.2174  0.1769  0.0047
    1DIPC   C1A 9377  27.252   5.070   5.354  0.1324 -0.1358  0.2692
    1DIPC   D2A 9378  27.330   4.834   4.879 -0.1398  0.0410 -0.1071
    1DIPC   D3A 9379  27.101   4.680   4.459  0.1123  0.0997  0.0231
    1DIPC   C4A 9380  26.685   4.574   4.451  0.2000  0.1468  0.1319
    1DIPC   C1B 9381  27.231   4.460   5.174  0.2218 -0.2641 -0.2531
    1DIPC   D2B 9382  27.162   4.342   4.760 -0.0755 -0.3452  0.0353
    1DIPC   D3B 9383  27.559   4.426   4.487 -0.1437  0.2547 -0.0422
    1DIPC   C4B 9384  27.637   4.771   4.274 -0.1780 -0.0015  0.0298
    1DIPC   NC3 9385  18.426   3.739   6.611  0.1156  0.0714  0.2824
    1DIPC   PO4 9386  18.322   3.317   6.576 -0.2349 -0.0546 -0.1266
    1DIPC   GL1 9387  18.378   3.543   6.081  0.0514 -0.0617  0.1021
    1DIPC   GL2 9388  18.612   3.779   6.098  0.1170  0.2648  0.0395
    1DIPC   C1A 9389  18.362   3.738   5.582 -0.2484  0.1905 -0.4946
    1DIPC   D2A 9390  18.241   3.646   5.200 -0.1234 -0.0519 -0.0434
    1DIPC   D3A 9391  17.970   3.309   5.018 -0.0210 -0.0137 -0.0359
    1DIPC   C4A 9392  17.496   3.261   4.834 -0.2108  0.0929  0.4129
    1DIPC   C1B 9393  18.896   4.117   6.031 -0.0295 -0.0638 -0.1025
    1DIPC   D2B 9394  19.152   4.388   6.164 -0.0638 -0.3197 -0.2934
    1DIPC   D3B 9395  18.727   4.566   6.206  0.1580 -0.0193 -0.2409
    1DIPC   C4B 9396  18.577   4.675   5.816  0.1087  0.0398  0.0755
    1DIPC   NC3 9397  25.985   3.910   6.105  0.1622  0.1162  0.1374
    1DIPC   PO4 9398  25.905   4.223   5.948  0.0631  0.0786 -0.0917
    1DIPC   GL1 9399  25.972   4.216   5.497  0.3443 -0.0996  0.0130
    1DIPC   GL2 9400  25.919   4.443   5.370 -0.2319 -0.0170  0.1720
    1DIPC   C1A 9401  26.189   3.988   5.153  0.0823 -0.1391 -0.0251
    1DIPC   D2A 9402  26.088   3.943   4.764  0.1115  0.0474 -0.0957
    1DIPC   D3A 9403  26.386   4.149   4.332 -0.1987 -0.1004 -0.0968
    1DIPC   C4A 9404  26.820   4.080   4.460  0.0063 -0.3244  0.0511
    1DIPC   C1B 9405  26.012   4.466   4.962  0.4688  0.0371 -0.1345
    1DIPC   D2B 9406  25.838   4.672   4.727 -0.3596 -0.1339 -0.2697
    1DIPC   D3B 9407  25.763   4.467   4.368 -0.1274  0.1061 -0.0495
    1DIPC   C4B 9408  25.926   3.963   4.233 -0.1804 -0.0294 -0.0392
    1DIPC   NC3 9409   2.476  14.195   6.512 -0.0457  0.0391  0.2054
    1DIPC   PO4 9410   2.959  14.049   6.409  0.2113 -0.1031  0.0514
    1DIPC   GL1 9411   3.016  14.125   6.009  0.1777  0.0083 -0.2061
    1DIPC   GL2 9412   3.291  14.141   5.804  0.1546  0.1295 -0.0095
    1DIPC   C1A 9413   2.843  13.858   5.750  0.2362  0.3108  0.1331
    1DIPC   D2A 9414   2.696  13.491   5.486  0.0465  0.1564 -0.1194
    1DIPC   D3A 9415   2.631  13.661   5.069  0.2610  0.0775 -0.3020
    1DIPC   C4A 9416   2.690  13.797   4.646  0.1576  0.3152 -0.0507
    1DIPC   C1B 9417   3.394  14.408   5.481 -0.1303  0.0223  0.0240
    1DIPC   D2B 9418   3.441  14.602   5.090  0.1591 -0.0028 -0.0010
    1DIPC   D3B 9419   3.288  15.022   5.218  0.2013  0.1456  0.4070
    1DIPC   C4B 9420   2.986  14.969   5.493 -0.0545 -0.3772  0.0734
    1DIPC   NC3 9421  10.967  11.633   7.454 -0.1349  0.0267 -0.1650
    1DIPC   PO4 9422  10.876  11.198   7.414 -0.0848 -0.0168 -0.5035
    1DIPC   GL1 9423  10.713  11.035   6.912 -0.1040  0.1788 -0.0086
    1DIPC   GL2 9424  10.989  11.075   6.728  0.0875  0.1238 -0.0476
    1DIPC   C1A 9425  10.563  10.733   6.630  0.3353 -0.1790 -0.0678
    1DIPC   D2A 9426  10.499  10.357   6.387 -0.1926 -0.1658 -0.2923
    1DIPC   D3A 9427  10.563  10.349   5.934  0.0857  0.2081 -0.2145
    1DIPC   C4A 9428  10.703  10.031   5.745  0.2359  0.3066 -0.1201
    1DIPC   C1B 9429  11.007  11.006   6.314  0.1273 -0.1035  0.1428
    1DIPC   D2B 9430  10.958  11.398   5.978  0.0162 -0.1765 -0.0347
    1DIPC   D3B 9431  11.147  11.523   5.578  0.0644  0.2351  0.0186
    1DIPC   C4B 9432  11.397  11.292   5.372  0.3666  0.0858 -0.0508
    1DIPC   NC3 9433  13.159  22.717   6.544  0.2485 -0.0154  0.2439
    1DIPC   PO4 9434  13.537  22.826   6.323 -0.0012 -0.0090  0.1623
    1DIPC   GL1 9435  13.413  22.759   5.887 -0.1167  0.1385  0.2406
    1DIPC   GL2 9436  13.439  23.029   5.783  0.0207  0.0683 -0.1398
    1DIPC   C1A 9437  13.245  22.495   5.579  0.0730  0.1626 -0.2904
    1DIPC   D2A 9438  12.814  22.448   5.653 -0.1853  0.2920 -0.1555
    1DIPC   D3A 9439  12.476  22.188   5.249 -0.1223  0.3418  0.0580
    1DIPC   C4A 9440  12.337  22.323   4.831 -0.0405 -0.3070 -0.0207
    1DIPC   C1B 9441  13.419  22.893   5.338 -0.2706  0.1354  0.2824
    1DIPC   D2B 9442  13.257  22.647   5.016  0.0143 -0.0423 -0.0981
    1DIPC   D3B 9443  12.902  22.725   5.174 -0.1010  0.1966 -0.0758
    1DIPC   C4B 9444  12.987  22.942   5.576  0.0312  0.1098  0.1432
    1DIPC   NC3 9445  17.541  25.521   7.217 -0.2444  0.2799  0.0176
    1DIPC   PO4 9446  17.568  25.106   7.034  0.1231 -0.0155  0.0401
    1DIPC   GL1 9447  17.496  24.962   6.639 -0.0832  0.0816 -0.0579
    1DIPC   GL2 9448  17.689  25.226   6.380 -0.0885 -0.1211 -0.1974
    1DIPC   C1A 9449  17.218  25.125   6.244  0.0352 -0.0648  0.1567
    1DIPC   D2A 9450  17.383  25.161   5.863  0.2298  0.1260  0.1098
    1DIPC   D3A 9451  17.317  25.531   5.545 -0.0928 -0.0331 -0.0274
    1DIPC   C4A 9452  17.666  25.786   5.599  0.1581  0.0200 -0.1734
    1DIPC   C1B 9453  17.745  24.866   6.264  0.2131 -0.2159 -0.0725
    1DIPC   D2B 9454  17.812  24.925   5.804  0.1763  0.2425 -0.0461
    1DIPC   D3B 9455  17.577  24.734   5.507 -0.1458  0.0276 -0.0545
    1DIPC   C4B 9456  17.315  25.082   5.240  0.0167  0.2086 -0.1231
    1DIPC   NC3 9457  15.938   6.167   8.320  0.2751 -0.0317 -0.0772
    1DIPC   PO4 9458  16.000   6.422   8.084  0.0568 -0.1272  0.1979
    1DIPC   GL1 9459  16.067   6.376   7.563  0.0919 -0.0281 -0.0376
    1DIPC   GL2 9460  15.836   6.607   7.392  0.1654 -0.2786  0.0027
    1DIPC   C1A 9461  16.251   6.403   7.163 -0.0031  0.1830 -0.0546
    1DIPC   D2A 9462  16.194   6.283   6.823 -0.2438  0.1827 -0.0398
    1DIPC   D3A 9463  15.800   6.138   6.777  0.3675 -0.1038  0.0013
    1DIPC   C4A 9464  15.707   5.857   6.460 -0.0421 -0.3393 -0.0290
    1DIPC   C1B 9465  15.803   6.685   7.013 -0.1543  0.0377 -0.2708
    1DIPC   D2B 9466  15.995   6.929   6.591 -0.2233  0.2249  0.2340
    1DIPC   D3B 9467  15.699   6.623   6.514  0.0355 -0.2272 -0.1368
    1DIPC   C4B 9468  15.159   6.512   6.514  0.0446  0.2171 -0.0146
    1DIPC   NC3 9469  25.316  19.086   6.323  0.1182  0.1172  0.3002
    1DIPC   PO4 9470  24.844  19.180   6.459 -0.1943  0.1279 -0.0888
    1DIPC   GL1 9471  24.952  19.211   6.024 -0.1614 -0.0036 -0.2040
    1DIPC   GL2 9472  24.939  19.498   5.897  0.1166  0.0360  0.0295
    1DIPC   C1A 9473  25.193  19.140   5.660 -0.2984 -0.1855  0.0618
    1DIPC   D2A 9474  25.169  18.934   5.270 -0.2536  0.1098 -0.2873
    1DIPC   D3A 9475  25.508  18.813   4.959 -0.1159  0.0840  0.0631
    1DIPC   C4A 9476  25.387  18.793   4.549 -0.0501 -0.0519  0.2849
    1DIPC   C1B 9477  24.970  19.875   5.688 -0.1522  0.1176 -0.1513
    1DIPC   D2B 9478  25.138  20.085   5.217  0.0149 -0.2932 -0.0163
    1DIPC   D3B 9479  25.453  19.956   5.449 -0.2777  0.1530  0.0530
    1DIPC   C4B 9480  25.430  19.590   5.667 -0.3147  0.2015 -0.1164
    1DIPC   NC3 9481  24.718   8.656   6.275 -0.3868  0.2814 -0.0039
    1DIPC   PO4 9482  24.421   8.610   6.022  0.1597  0.6345 -0.2772
    1DIPC   GL1 9483  24.449   8.290   5.674 -0.2290 -0.2778 -0.1622
    1DIPC   GL2 9484  24.655   8.083   5.632 -0.1508  0.1480  0.3547
    1DIPC   C1A 9485  24.505   8.359   5.231  0.1390  0.0515 -0.0825
    1DIPC   D2A 9486  24.351   8.441   4.859  0.2364  0.2900 -0.0424
    1DIPC   D3A 9487  24.143   8.126   5.016  0.0323 -0.2777  0.0652
    1DIPC   C4A 9488  24.493   7.895   5.025  0.1005  0.4940  0.0925
    1DIPC   C1B 9489  24.331   7.799   5.504  0.5182 -0.2138 -0.0497
    1DIPC   D2B 9490  24.595   7.440   5.138 -0.1611  0.2284 -0.2221
    1DIPC   D3B 9491  24.611   7.584   4.687  0.2200 -0.0051  0.0340
    1DIPC   C4B 9492  24.519   8.026   4.465 -0.0424  0.1191  0.2295
    1DIPC   NC3 9493   6.632   6.158   6.873 -0.0264 -0.1835  0.2170
    1DIPC   PO4 9494   7.020   6.486   6.907 -0.2201 -0.0036  0.1749
    1DIPC   GL1 9495   7.427   6.447   6.548  0.1204  0.1851  0.0776
    1DIPC   GL2 9496   7.690   6.297   6.584  0.0040 -0.2571  0.1545
    1DIPC   C1A 9497   7.634   6.687   6.223  0.2180 -0.0915  0.1730
    1DIPC   D2A 9498   7.625   6.573   5.779 -0.2033  0.0139  0.0318
    1DIPC   D3A 9499   7.649   6.717   5.424 -0.2528  0.0884  0.1691
    1DIPC   C4A 9500   7.726   6.462   5.058 -0.1844  0.2237  0.3537
    1DIPC   C1B 9501   8.010   6.377   6.219  0.0815  0.0688 -0.0174
    1DIPC   D2B 9502   8.077   6.234   5.886  0.0789  0.1895  0.1558
    1DIPC   D3B 9503   8.153   5.890   5.623 -0.4248 -0.2984 -0.1103
    1DIPC   C4B 9504   8.528   5.837   5.364 -0.0404  0.0615  0.2409
    1DIPC   NC3 9505   4.134  25.173   6.564 -0.0992 -0.1979  0.2709
    1DIPC   PO4 9506   3.853  25.033   6.227  0.1136 -0.0696  0.5135
    1DIPC   GL1 9507   3.945  25.214   5.846 -0.0675 -0.1339 -0.1160
    1DIPC   GL2 9508   3.686  25.147   5.647  0.1388  0.2905 -0.1647
    1DIPC   C1A 9509   4.076  25.354   5.457  0.1821 -0.1670  0.2250
    1DIPC   D2A 9510   4.009  25.530   5.041 -0.1814 -0.1432 -0.2180
    1DIPC   D3A 9511   4.322  25.478   4.708 -0.3189  0.0606  0.2139
    1DIPC   C4A 9512   4.672  25.195   4.805 -0.0531  0.2213 -0.2266
    1DIPC   C1B 9513   3.643  25.203   5.234 -0.3329  0.2170 -0.0284
    1DIPC   D2B 9514   3.460  25.160   4.822 -0.0294  0.1106 -0.2231
    1DIPC   D3B 9515   3.835  25.315   4.653  0.0621 -0.2053  0.0402
    1DIPC   C4B 9516   3.992  25.484   4.324  0.0508  0.3599 -0.0856
    1DIPC   NC3 9517  19.924  24.199   6.953 -0.3529 -0.5292 -0.0593
    1DIPC   PO4 9518  19.973  23.820   6.640  0.0368  0.3875 -0.1179
    1DIPC   GL1 9519  20.182  23.781   6.278  0.1249 -0.2627  0.1496
    1DIPC   GL2 9520  20.097  24.012   6.092 -0.0373  0.3891  0.0680
    1DIPC   C1A 9521  20.422  23.726   5.869  0.1445  0.2455 -0.0946
    1DIPC   D2A 9522  20.714  23.605   5.584  0.5743  0.0527 -0.1061
    1DIPC   D3A 9523  20.898  23.180   5.813  0.0714 -0.1608  0.3049
    1DIPC   C4A 9524  21.091  22.902   5.532  0.1274  0.0467  0.0451
    1DIPC   C1B 9525  20.258  24.212   5.647  0.0321  0.0935 -0.2528
    1DIPC   D2B 9526  20.354  24.003   5.360 -0.0805 -0.0844  0.0086
    1DIPC   D3B 9527  20.617  24.272   5.274 -0.1988  0.0343  0.3045
    1DIPC   C4B 9528  20.618  24.578   5.671  0.0801 -0.1957  0.2295
    1DIPC   NC3 9529   4.348   6.498   6.581 -0.1613 -0.1495  0.3538
    1DIPC   PO4 9530   4.162   6.711   6.244 -0.1298  0.0972 -0.0620
    1DIPC   GL1 9531   4.163   6.670   5.787 -0.0772 -0.2487  0.0043
    1DIPC   GL2 9532   4.277   6.940   5.604 -0.0015 -0.4843  0.0989
    1DIPC   C1A 9533   4.421   6.393   5.590  0.3188  0.1699 -0.0257
    1DIPC   D2A 9534   4.273   5.958   5.435  0.0533  0.1630  0.1992
    1DIPC   D3A 9535   4.155   6.029   4.959  0.0994  0.0060 -0.0868
    1DIPC   C4A 9536   3.766   6.231   4.943  0.0452 -0.1082  0.1611
    1DIPC   C1B 9537   4.616   6.761   5.324  0.2265 -0.0697  0.0406
    1DIPC   D2B 9538   4.586   6.346   5.088 -0.1166  0.1675 -0.0216
    1DIPC   D3B 9539   4.805   6.015   4.800  0.0287  0.2934 -0.1819
    1DIPC   C4B 9540   5.085   5.721   4.954  0.1686 -0.1058  0.0155
    1DIPC   NC3 9541   9.006   8.884   6.982 -0.0332  0.0687 -0.3421
    1DIPC   PO4 9542   9.038   8.407   6.931  0.2242  0.1812 -0.1325
    1DIPC   GL1 9543   9.053   8.041   6.473  0.1838  0.0345 -0.1284
    1DIPC   GL2 9544   8.980   7.766   6.297 -0.1298  0.0207 -0.0387
    1DIPC   C1A 9545   9.324   7.992   6.016  0.1417 -0.0014 -0.0513
    1DIPC   D2A 9546   9.508   7.818   5.741 -0.2771  0.0122  0.3975
    1DIPC   D3A 9547   9.470   7.788   5.355  0.0745 -0.2269  0.0020
    1DIPC   C4A 9548   9.298   7.634   4.955 -0.2467  0.3688  0.0109
    1DIPC   C1B 9549   8.926   7.741   5.859 -0.1075  0.0158 -0.1326
    1DIPC   D2B 9550   8.957   7.721   5.502  0.1165 -0.2814  0.1579
    1DIPC   D3B 9551   8.603   8.013   5.295  0.1723 -0.0486  0.2040
    1DIPC   C4B 9552   8.273   8.073   5.338 -0.0390 -0.0474  0.0160
    1DIPC   NC3 9553   6.037  17.280   6.303  0.0813  0.0690 -0.1778
    1DIPC   PO4 9554   6.197  16.986   6.000  0.1579  0.1308  0.0433
    1DIPC   GL1 9555   6.113  17.113   5.591  0.2613 -0.1960  0.2191
    1DIPC   GL2 9556   5.933  16.914   5.413 -0.2611 -0.1332  0.0042
    1DIPC   C1A 9557   6.237  17.044   5.053  0.2416  0.2183  0.1167
    1DIPC   D2A 9558   6.138  17.200   4.636  0.1081 -0.2327  0.1759
    1DIPC   D3A 9559   6.485  17.179   4.355  0.0586  0.2833  0.1037
    1DIPC   C4A 9560   6.571  16.710   4.455  0.1800  0.2091 -0.3071
    1DIPC   C1B 9561   5.817  16.714   5.136  0.1797 -0.0523 -0.1448
    1DIPC   D2B 9562   5.729  16.434   4.805 -0.0966  0.1305 -0.2580
    1DIPC   D3B 9563   5.594  16.433   4.469 -0.2523  0.0610  0.0327
    1DIPC   C4B 9564   5.394  16.884   4.298  0.1496 -0.1155 -0.3686
    1DIPC   NC3 9565  20.696  20.298   6.913 -0.1434 -0.1406 -0.3135
    1DIPC   PO4 9566  21.126  20.521   6.860 -0.3799 -0.1055 -0.1725
    1DIPC   GL1 9567  20.932  20.545   6.490  0.1556 -0.0195  0.0481
    1DIPC   GL2 9568  20.672  20.272   6.427 -0.0926 -0.0500 -0.2173
    1DIPC   C1A 9569  20.820  20.562   6.004 -0.3545  0.1254 -0.0251
    1DIPC   D2A 9570  20.801  20.524   5.582 -0.3827 -0.0952 -0.1128
    1DIPC   D3A 9571  20.980  20.153   5.535  0.0135  0.2522  0.0356
    1DIPC   C4A 9572  21.245  19.989   5.155  0.0175  0.0419 -0.0299
    1DIPC   C1B 9573  20.731  19.839   6.452 -0.0601  0.1422 -0.0248
    1DIPC   D2B 9574  20.927  19.459   6.400 -0.0536 -0.1029  0.1741
    1DIPC   D3B 9575  20.630  19.168   6.314  0.0284 -0.0894  0.2675
    1DIPC   C4B 9576  20.379  18.904   6.545  0.2911  0.0242  0.2002
    1DIPC   NC3 9577   8.280   0.582   7.417  0.2471 -0.4753  0.2864
    1DIPC   PO4 9578   8.528   0.379   7.124  0.2683  0.0798  0.3110
    1DIPC   GL1 9579   8.369   0.313   6.689  0.0931 -0.1251  0.1209
    1DIPC   GL2 9580   8.036   0.412   6.728  0.2471 -0.3538 -0.3376
    1DIPC   C1A 9581   8.415   0.666   6.455 -0.4948  0.3736  0.1366
    1DIPC   D2A 9582   8.684   0.754   6.040 -0.0744  0.1305 -0.1006
    1DIPC   D3A 9583   8.868   0.392   5.936  0.2359 -0.3319 -0.0605
    1DIPC   C4A 9584   9.166   0.218   6.185  0.1168  0.1483  0.1441
    1DIPC   C1B 9585   7.925   0.603   6.412 -0.3995 -0.2045  0.2316
    1DIPC   D2B 9586   7.793   0.633   6.002  0.2766  0.2043 -0.0758
    1DIPC   D3B 9587   8.174   0.523   5.840 -0.1045  0.0458 -0.0483
    1DIPC   C4B 9588   8.439   0.251   6.172 -0.4414  0.0108 -0.0300
    1DIPC   NC3 9589   1.510  25.665   6.904  0.0680  0.0710  0.2041
    1DIPC   PO4 9590   1.357  25.505   6.508  0.1798  0.0287 -0.1489
    1DIPC   GL1 9591   1.418  25.611   6.134 -0.1615 -0.1994 -0.1243
    1DIPC   GL2 9592   1.484  25.974   6.188 -0.2574  0.1050  0.2917
    1DIPC   C1A 9593   1.109  25.873   5.764 -0.2094 -0.2926  0.1212
    1DIPC   D2A 9594   1.084  25.775   5.226  0.0171  0.0433  0.1285
    1DIPC   D3A 9595   1.252  25.449   5.253  0.0240  0.1082 -0.1547
    1DIPC   C4A 9596   1.414  25.436   5.675  0.1631  0.1229  0.2331
    1DIPC   C1B 9597   1.529  26.151   5.693 -0.0469 -0.0722  0.2309
    1DIPC   D2B 9598   1.366  26.184   5.231 -0.1311  0.0939 -0.0697
    1DIPC   D3B 9599   1.521  26.422   4.839 -0.0269  0.1320 -0.0900
    1DIPC   C4B 9600   1.701  26.807   4.948 -0.0994  0.3994 -0.1448
    1DIPC   NC3 9601   0.463  18.578   6.346  0.0968 -0.1230  0.0242
    1DIPC   PO4 9602   0.025  18.690   6.226  0.2583 -0.3946  0.1644
    1DIPC   GL1 9603   0.069  18.777   5.724  0.3226 -0.0215  0.0079
    1DIPC   GL2 9604  -0.121  19.038   5.638  0.2284  0.1076 -0.0880
    1DIPC   C1A 9605   0.372  18.822   5.415  0.0224 -0.2267 -0.0931
    1DIPC   D2A 9606   0.395  18.773   5.054 -0.0803  0.0925 -0.0782
    1DIPC   D3A 9607   0.010  18.557   4.876  0.0180 -0.1908 -0.3320
    1DIPC   C4A 9608  -0.346  18.720   4.848  0.1840 -0.2220  0.1960
    1DIPC   C1B 9609  -0.195  18.887   5.276 -0.2216  0.0954  0.0989
    1DIPC   D2B 9610   0.019  19.064   4.975  0.3282 -0.1955 -0.1403
    1DIPC   D3B 9611   0.053  18.975   4.551  0.0659  0.0048 -0.0563
    1DIPC   C4B 9612  -0.228  19.137   4.333 -0.3187  0.4113  0.1134
    1DIPC   NC3 9613  13.529   4.610   7.681  0.0294  0.1918 -0.2840
    1DIPC   PO4 9614  13.245   4.480   7.427  0.2239  0.0056  0.1130
    1DIPC   GL1 9615  13.399   4.635   7.016  0.3668 -0.0232  0.2400
    1DIPC   GL2 9616  13.233   4.501   6.831 -0.0763  0.1932 -0.2788
    1DIPC   C1A 9617  13.352   4.957   6.627  0.0597  0.0570 -0.0131
    1DIPC   D2A 9618  13.421   5.172   6.196 -0.0881  0.4311 -0.0330
    1DIPC   D3A 9619  13.311   5.134   5.824 -0.1151  0.1902  0.0810
    1DIPC   C4A 9620  12.986   4.775   5.780  0.0078  0.0485  0.2736
    1DIPC   C1B 9621  13.153   4.536   6.444 -0.0469 -0.0571  0.3155
    1DIPC   D2B 9622  12.849   4.409   6.173  0.1410 -0.1047  0.0009
    1DIPC   D3B 9623  12.922   4.076   5.844 -0.2889 -0.1023 -0.4649
    1DIPC   C4B 9624  13.265   4.114   5.684 -0.0648 -0.0384  0.1933
    1DIPC   NC3 9625  25.833  19.881   6.983  0.1233 -0.0229 -0.3799
    1DIPC   PO4 9626  25.853  20.237   6.709 -0.1107 -0.3041  0.3461
    1DIPC   GL1 9627  26.096  20.377   6.416 -0.2879  0.1640  0.1303
    1DIPC   GL2 9628  26.125  20.237   6.175 -0.0237 -0.2588  0.2301
    1DIPC   C1A 9629  26.349  20.677   6.209  0.2273 -0.0304 -0.0171
    1DIPC   D2A 9630  26.520  20.535   5.836 -0.1325  0.1499 -0.2624
    1DIPC   D3A 9631  26.708  20.058   5.911 -0.0488  0.0050 -0.0336
    1DIPC   C4A 9632  26.403  19.783   5.716 -0.0316  0.0972  0.0543
    1DIPC   C1B 9633  26.069  20.438   5.821 -0.2088  0.0291  0.1895
    1DIPC   D2B 9634  25.820  20.478   5.571  0.2949 -0.0384 -0.0009
    1DIPC   D3B 9635  25.635  20.901   5.257  0.0965 -0.0310  0.0774
    1DIPC   C4B 9636  25.277  20.742   5.028 -0.2266 -0.2689 -0.0090
    1DIPC   NC3 9637   6.190  27.973   6.870 -0.2153  0.2365 -0.0002
    1DIPC   PO4 9638   5.919  27.648   7.019  0.1102 -0.0962 -0.4363
    1DIPC   GL1 9639   6.005  27.522   6.625  0.1961  0.1140 -0.0728
    1DIPC   GL2 9640   6.181  27.191   6.690 -0.1337 -0.1559  0.0800
    1DIPC   C1A 9641   5.748  27.225   6.307  0.2405 -0.0012  0.0399
    1DIPC   D2A 9642   5.885  26.986   5.867  0.0906 -0.2125 -0.1012
    1DIPC   D3A 9643   6.135  26.848   6.082  0.3909 -0.3142  0.2201
    1DIPC   C4A 9644   5.925  26.747   6.423  0.1568 -0.0391  0.1532
    1DIPC   C1B 9645   6.235  27.324   6.243 -0.0307 -0.3647 -0.0502
    1DIPC   D2B 9646   6.611  27.441   6.082  0.1413 -0.1282 -0.1288
    1DIPC   D3B 9647   6.610  27.460   5.537 -0.5073  0.1448  0.2293
    1DIPC   C4B 9648   6.441  27.777   5.347 -0.0297 -0.4147 -0.1786
    1DIPC   NC3 9649  23.497   2.675   6.551 -0.1852 -0.0542  0.0620
    1DIPC   PO4 9650  23.538   2.981   6.251  0.0452 -0.2572 -0.2015
    1DIPC   GL1 9651  23.467   2.662   5.882 -0.1868 -0.0604  0.0306
    1DIPC   GL2 9652  23.295   2.321   5.931  0.0764  0.0826  0.1116
    1DIPC   C1A 9653  23.249   2.685   5.452 -0.1292  0.1581  0.1154
    1DIPC   D2A 9654  22.882   2.530   5.174 -0.3211 -0.0627  0.1895
    1DIPC   D3A 9655  22.567   2.568   5.414 -0.0358 -0.0840  0.0646
    1DIPC   C4A 9656  22.687   3.045   5.672 -0.2141 -0.0789  0.0739
    1DIPC   C1B 9657  23.015   2.259   5.611  0.0642 -0.0351 -0.0883
    1DIPC   D2B 9658  23.291   2.266   5.235  0.1845  0.0121 -0.3229
    1DIPC   D3B 9659  23.067   2.208   4.837  0.2578  0.1058  0.1657
    1DIPC   C4B 9660  23.250   1.816   4.667 -0.1219 -0.0238 -0.2365
    1DIPC   NC3 9661   5.170  10.930   6.635  0.1990  0.2349  0.2724
    1DIPC   PO4 9662   5.053  11.326   6.541  0.4272 -0.3017 -0.0166
    1DIPC   GL1 9663   4.969  11.309   6.114  0.1873 -0.0564 -0.1060
    1DIPC   GL2 9664   4.714  11.203   5.961 -0.0887  0.1528  0.0090
    1DIPC   C1A 9665   5.181  11.247   5.744  0.1309  0.1886 -0.1051
    1DIPC   D2A 9666   5.040  11.477   5.350 -0.1221 -0.1183 -0.0386
    1DIPC   D3A 9667   4.802  11.694   5.106  0.2719  0.2653 -0.0738
    1DIPC   C4A 9668   4.645  11.508   4.673  0.2811 -0.0502 -0.1507
    1DIPC   C1B 9669   4.474  11.387   5.597  0.0467 -0.2219  0.0071
    1DIPC   D2B 9670   4.478  11.381   5.170 -0.1360  0.4336  0.0971
    1DIPC   D3B 9671   4.322  11.151   4.904  0.0666  0.4508  0.1870
    1DIPC   C4B 9672   4.046  11.392   4.737  0.1566 -0.1644  0.1562
    1DIPC   NC3 9673   3.932  11.430   6.559 -0.0127 -0.0682  0.2325
    1DIPC   PO4 9674   4.205  11.024   6.594 -0.2154 -0.2852 -0.0059
    1DIPC   GL1 9675   3.955  11.042   6.190 -0.1598  0.0591 -0.0730
    1DIPC   GL2 9676   4.115  10.785   5.987 -0.3305  0.3485  0.1949
    1DIPC   C1A 9677   3.992  11.247   5.884 -0.0110 -0.0864  0.0789
    1DIPC   D2A 9678   4.027  11.273   5.368 -0.3826  0.0277  0.3576
    1DIPC   D3A 9679   3.586  11.261   5.200 -0.0897 -0.0880 -0.0613
    1DIPC   C4A 9680   3.524  11.496   4.746 -0.1062  0.1209 -0.4291
    1DIPC   C1B 9681   4.223  10.431   5.787 -0.1748  0.0283  0.2405
    1DIPC   D2B 9682   4.367   9.969   5.729  0.2354 -0.1084  0.3018
    1DIPC   D3B 9683   4.461   9.921   5.321 -0.0598 -0.0540  0.1795
    1DIPC   C4B 9684   4.109   9.685   5.073  0.2414 -0.1056 -0.2029
    1DIPC   NC3 9685   5.986   1.987   6.976 -0.0473  0.1010 -0.2704
    1DIPC   PO4 9686   5.937   2.406   6.804  0.1859  0.1385 -0.1929
    1DIPC   GL1 9687   6.191   2.284   6.519  0.0556 -0.1427  0.4244
    1DIPC   GL2 9688   6.446   2.098   6.602 -0.0570  0.1890  0.1460
    1DIPC   C1A 9689   6.352   2.523   6.086 -0.0520  0.1207  0.3227
    1DIPC   D2A 9690   6.106   2.708   5.760 -0.0969  0.0322 -0.3119
    1DIPC   D3A 9691   6.454   2.881   5.534 -0.1269  0.0391  0.1031
    1DIPC   C4A 9692   6.797   2.687   5.512 -0.0061  0.0531  0.0790
    1DIPC   C1B 9693   6.862   1.836   6.512  0.0564  0.0578  0.0347
    1DIPC   D2B 9694   7.293   1.889   6.360  0.1054  0.0489 -0.1179
    1DIPC   D3B 9695   6.985   1.885   6.031  0.1367 -0.2751  0.0827
    1DIPC   C4B 9696   6.797   1.541   5.935  0.1463 -0.0278  0.1939
    1DIPC   NC3 9697  20.936   2.325   6.394 -0.2252 -0.0932 -0.1066
    1DIPC   PO4 9698  21.365   2.257   6.282  0.0123 -0.2479  0.1502
    1DIPC   GL1 9699  21.511   2.063   5.878  0.0477  0.1492 -0.0771
    1DIPC   GL2 9700  21.726   1.760   5.931  0.2490 -0.0954 -0.1158
    1DIPC   C1A 9701  21.621   2.008   5.397  0.0361  0.2879  0.0182
    1DIPC   D2A 9702  21.681   2.292   5.124 -0.1794 -0.5452 -0.2329
    1DIPC   D3A 9703  21.414   1.912   4.857 -0.0084 -0.3676 -0.0950
    1DIPC   C4A 9704  21.537   1.736   4.457  0.1770  0.1283 -0.3096
    1DIPC   C1B 9705  21.993   1.651   5.530  0.1924  0.2265  0.0332
    1DIPC   D2B 9706  22.337   1.635   5.127  0.0632  0.0995  0.0483
    1DIPC   D3B 9707  22.063   1.261   5.095 -0.1187 -0.0441  0.0940
    1DIPC   C4B 9708  21.909   1.001   5.369 -0.1778  0.0852  0.0889
    1DIPC   NC3 9709  22.363  25.614   7.219  0.0221  0.0626 -0.0197
    1DIPC   PO4 9710  22.413  25.851   6.803  0.2893 -0.3876  0.0305
    1DIPC   GL1 9711  22.323  25.859   6.369  0.1414 -0.2353 -0.2746
    1DIPC   GL2 9712  21.999  25.807   6.317 -0.0521 -0.2827 -0.0522
    1DIPC   C1A 9713  22.430  26.067   5.985 -0.1278  0.3441 -0.1873
    1DIPC   D2A 9714  22.742  26.336   5.674  0.0289  0.0046  0.0788
    1DIPC   D3A 9715  22.868  26.770   5.688 -0.1224  0.0109  0.5441
    1DIPC   C4A 9716  22.958  26.928   5.162 -0.2634  0.2042 -0.1301
    1DIPC   C1B 9717  22.322  25.554   6.010  0.1993  0.1266 -0.0993
    1DIPC   D2B 9718  22.424  25.298   5.652  0.3698  0.0677 -0.4568
    1DIPC   D3B 9719  22.627  25.019   5.545 -0.2522 -0.2289 -0.1236
    1DIPC   C4B 9720  22.465  24.571   5.537 -0.0450 -0.0983 -0.5469
    1DIPC   NC3 9721  11.964  24.240   6.851  0.0643  0.1357  0.1148
    1DIPC   PO4 9722  11.627  24.278   6.645  0.1113  0.1258 -0.3030
    1DIPC   GL1 9723  11.809  24.354   6.271 -0.0358 -0.0390 -0.4497
    1DIPC   GL2 9724  12.137  24.428   6.397  0.3411  0.1708  0.1592
    1DIPC   C1A 9725  11.924  24.417   5.927 -0.1967 -0.1314 -0.0849
    1DIPC   D2A 9726  11.958  24.300   5.545  0.2169  0.0341  0.1110
    1DIPC   D3A 9727  11.932  24.608   5.262 -0.4531 -0.2991  0.0562
    1DIPC   C4A 9728  11.961  24.420   4.826  0.1302 -0.1422 -0.1044
    1DIPC   C1B 9729  12.423  24.190   6.066  0.0699  0.0745 -0.1377
    1DIPC   D2B 9730  12.453  24.345   5.671 -0.1038  0.0092  0.1634
    1DIPC   D3B 9731  12.359  24.308   5.205  0.1361 -0.0431 -0.0548
    1DIPC   C4B 9732  11.993  24.064   5.108  0.1591 -0.0130  0.1676
    1DIPC   NC3 9733   9.042  22.740   6.220 -0.2698 -0.0480  0.1368
    1DIPC   PO4 9734   9.455  22.735   6.117 -0.1839 -0.0944 -0.1108
    1DIPC   GL1 9735   9.287  22.516   5.789  0.0230 -0.1461  0.1070
    1DIPC   GL2 9736   8.925  22.643   5.758 -0.2706  0.3660  0.1318
    1DIPC   C1A 9737   9.428  22.413   5.337  0.1292  0.0421  0.2118
    1DIPC   D2A 9738   9.571  22.237   4.960  0.3604  0.0340 -0.1233
    1DIPC   D3A 9739   9.472  22.022   4.587 -0.0387 -0.1572  0.1650
    1DIPC   C4A 9740   9.104  21.825   4.690 -0.2748 -0.0704  0.1326
    1DIPC   C1B 9741   8.592  22.514   5.542 -0.2015 -0.1580  0.1982
    1DIPC   D2B 9742   8.467  22.316   5.073 -0.3032  0.0655  0.2772
    1DIPC   D3B 9743   8.573  22.059   4.617 -0.0630 -0.0874  0.0673
    1DIPC   C4B 9744   8.807  22.009   4.196 -0.1957  0.0801 -0.0995
    1DIPC   NC3 9745  23.583  15.776   6.162  0.1390  0.1019 -0.0998
    1DIPC   PO4 9746  23.116  15.697   5.992 -0.1903 -0.0668  0.2719
    1DIPC   GL1 9747  23.341  15.850   5.618  0.0732 -0.1073 -0.0790
    1DIPC   GL2 9748  23.512  15.612   5.600  0.2032 -0.2702 -0.1038
    1DIPC   C1A 9749  23.421  15.843   5.086 -0.0754  0.3930 -0.0145
    1DIPC   D2A 9750  23.370  15.673   4.648 -0.0463 -0.1435  0.1242
    1DIPC   D3A 9751  23.506  15.253   4.632  0.1263 -0.0248  0.2958
    1DIPC   C4A 9752  23.678  14.984   4.354 -0.0934  0.1531 -0.1800
    1DIPC   C1B 9753  23.849  15.666   5.242  0.0112 -0.1427  0.2216
    1DIPC   D2B 9754  24.278  15.618   5.089  0.1167  0.0647  0.0188
    1DIPC   D3B 9755  24.359  15.823   4.675 -0.0393 -0.1877 -0.1310
    1DIPC   C4B 9756  24.765  16.127   4.557 -0.0530  0.0489  0.1647
    1DIPC   NC3 9757   1.043  10.147   6.343  0.4476 -0.3869  0.2258
    1DIPC   PO4 9758   1.171   9.793   6.205 -0.0457  0.3022  0.2074
    1DIPC   GL1 9759   1.035   9.939   5.760  0.0865  0.1927 -0.0830
    1DIPC   GL2 9760   0.854   9.662   5.709 -0.1814 -0.3374  0.3066
    1DIPC   C1A 9761   0.875  10.154   5.450  0.1973 -0.2849 -0.0235
    1DIPC   D2A 9762   0.706  10.195   5.108 -0.1961 -0.2098 -0.1088
    1DIPC   D3A 9763   0.861  10.379   4.806 -0.0952  0.0112  0.1367
    1DIPC   C4A 9764   0.998  10.641   4.558  0.0538 -0.1409  0.2106
    1DIPC   C1B 9765   0.647   9.725   5.324 -0.0693 -0.2553 -0.1837
    1DIPC   D2B 9766   0.456   9.434   5.018  0.0716  0.2078  0.2350
    1DIPC   D3B 9767   0.914   9.577   4.845  0.0142  0.2333  0.2673
    1DIPC   C4B 9768   1.027   9.882   4.905 -0.0685  0.1300  0.0890
    1DIPC   NC3 9769  29.358  20.746   6.042  0.1146 -0.3418  0.1544
    1DIPC   PO4 9770  29.308  21.233   6.033 -0.1903  0.0647 -0.4744
    1DIPC   GL1 9771  29.272  21.325   5.583  0.0140 -0.0702 -0.1009
    1DIPC   GL2 9772  29.205  21.651   5.528  0.0747  0.1748 -0.4651
    1DIPC   C1A 9773  29.342  21.310   5.105  0.1255 -0.4051 -0.1352
    1DIPC   D2A 9774  29.265  21.629   4.778 -0.0739  0.1508 -0.4092
    1DIPC   D3A 9775  29.363  22.141   4.748 -0.1590  0.0178 -0.0648
    1DIPC   C4A 9776  29.250  22.417   5.057  0.0833 -0.2083 -0.0469
    1DIPC   C1B 9777  29.318  21.959   5.293  0.4443 -0.1025 -0.1149
    1DIPC   D2B 9778  29.625  22.151   5.312  0.1616  0.1601  0.0969
    1DIPC   D3B 9779  29.956  22.006   5.214 -0.1940 -0.2487 -0.1287
    1DIPC   C4B 9780  30.228  22.245   5.057 -0.3052  0.1593 -0.0566
    1DIPC   NC3 9781  24.035  14.107   5.726 -0.2511  0.1851  0.0496
    1DIPC   PO4 9782  24.404  14.032   5.434  0.2734 -0.0511 -0.1468
    1DIPC   GL1 9783  24.257  14.006   5.058 -0.1583 -0.1892 -0.0320
    1DIPC   GL2 9784  23.962  14.078   5.231 -0.0794 -0.0180 -0.2078
    1DIPC   C1A 9785  24.177  13.923   4.656  0.0128 -0.1613 -0.3483
    1DIPC   D2A 9786  24.094  14.262   4.466  0.0624 -0.1092 -0.1509
    1DIPC   D3A 9787  24.537  14.346   4.152 -0.2244  0.0651  0.1384
    1DIPC   C4A 9788  24.944  14.100   4.250 -0.2371  0.0016 -0.0648
    1DIPC   C1B 9789  23.902  14.363   4.976 -0.1159 -0.0125 -0.0474
    1DIPC   D2B 9790  23.774  14.824   4.864  0.1058 -0.0474 -0.0761
    1DIPC   D3B 9791  24.112  14.720   4.525 -0.0210  0.1172 -0.3631
    1DIPC   C4B 9792  24.029  14.534   4.108  0.0473 -0.0491 -0.0796
    1DIPC   NC3 9793  20.944  19.489   7.211 -0.0209  0.3506 -0.1695
    1DIPC   PO4 9794  20.720  19.122   7.106  0.0434  0.0865 -0.0734
    1DIPC   GL1 9795  20.986  19.111   6.707 -0.2683 -0.2047  0.1684
    1DIPC   GL2 9796  21.379  19.192   6.693 -0.2417 -0.1824 -0.0234
    1DIPC   C1A 9797  21.187  18.973   6.313  0.2078 -0.0676 -0.1039
    1DIPC   D2A 9798  21.216  18.729   5.949 -0.2693  0.0831  0.2605
    1DIPC   D3A 9799  20.933  18.835   5.557  0.2243  0.1868 -0.3379
    1DIPC   C4A 9800  21.109  18.875   5.128 -0.1520  0.0098 -0.1014
    1DIPC   C1B 9801  21.777  18.973   6.504 -0.1943 -0.0331  0.0007
    1DIPC   D2B 9802  22.205  18.850   6.416 -0.0848  0.1198  0.0906
    1DIPC   D3B 9803  22.401  18.609   6.116  0.1913 -0.2095  0.0936
    1DIPC   C4B 9804  22.439  18.694   5.707 -0.0443 -0.0344  0.2074
    1DIPC   NC3 9805  27.969  20.056   6.748 -0.3292  0.3881 -0.0406
    1DIPC   PO4 9806  27.750  20.211   6.332  0.0012 -0.3136 -0.1308
    1DIPC   GL1 9807  27.583  20.433   5.911  0.6457 -0.0021  0.2752
    1DIPC   GL2 9808  27.715  20.171   5.819 -0.1626 -0.0690  0.2704
    1DIPC   C1A 9809  27.427  20.529   5.480 -0.2613 -0.2964  0.1750
    1DIPC   D2A 9810  27.221  20.688   5.212  0.2074 -0.2477  0.0220
    1DIPC   D3A 9811  27.258  21.095   5.050  0.2229 -0.0209  0.0273
    1DIPC   C4A 9812  26.963  21.393   5.238 -0.4122 -0.0844  0.1988
    1DIPC   C1B 9813  27.974  19.864   5.800  0.0207 -0.0507  0.0342
    1DIPC   D2B 9814  28.150  19.511   5.829 -0.3527 -0.0789 -0.0964
    1DIPC   D3B 9815  27.924  19.449   5.541  0.0609  0.1211  0.1659
    1DIPC   C4B 9816  28.146  19.574   5.102  0.3395 -0.0844 -0.2003
    1DIPC   NC3 9817  15.897   0.854   7.254 -0.1752 -0.1703  0.2211
    1DIPC   PO4 9818  16.061   1.342   7.257  0.0001  0.1995  0.1849
    1DIPC   GL1 9819  16.161   1.217   6.827  0.0052  0.2553  0.1038
    1DIPC   GL2 9820  15.882   1.001   6.774  0.0880 -0.1072  0.0837
    1DIPC   C1A 9821  16.131   1.275   6.308  0.1194  0.1786 -0.1193
    1DIPC   D2A 9822  15.857   1.433   6.044  0.0980  0.1764 -0.4265
    1DIPC   D3A 9823  15.369   1.475   6.275 -0.0443 -0.0695  0.0687
    1DIPC   C4A 9824  15.008   1.437   5.963 -0.2238 -0.2373 -0.1659
    1DIPC   C1B 9825  15.662   1.145   6.419  0.3114 -0.1142 -0.0099
    1DIPC   D2B 9826  15.211   0.989   6.365  0.0442  0.0301 -0.1076
    1DIPC   D3B 9827  15.269   1.010   5.912  0.2992 -0.2173  0.1709
    1DIPC   C4B 9828  15.260   0.725   5.493  0.3764  0.0365 -0.0090
    1DIPC   NC3 9829  14.508  27.861   7.348 -0.0078  0.0060  0.0118
    1DIPC   PO4 9830  14.731  27.437   7.439 -0.0152 -0.1661  0.1578
    1DIPC   GL1 9831  14.850  27.549   7.065  0.0092  0.1935  0.1396
    1DIPC   GL2 9832  14.590  27.443   6.818 -0.0138 -0.1460 -0.0675
    1DIPC   C1A 9833  14.760  27.902   6.712 -0.1225 -0.1018 -0.2080
    1DIPC   D2A 9834  15.009  28.060   6.360  0.1255  0.2138  0.1758
    1DIPC   D3A 9835  15.098  28.440   6.123  0.2055 -0.2763  0.0379
    1DIPC   C4A 9836  15.445  28.446   5.812 -0.0903 -0.5787 -0.1961
    1DIPC   C1B 9837  14.548  27.590   6.405  0.1770 -0.0873 -0.1782
    1DIPC   D2B 9838  14.368  27.734   6.012 -0.0973  0.0530  0.1949
    1DIPC   D3B 9839  14.204  28.174   6.061  0.0177  0.2074 -0.0674
    1DIPC   C4B 9840  14.514  28.464   6.254 -0.0518 -0.1190  0.0110
    1DIPC   NC3 9841  13.515   0.109   7.700  0.0659 -0.1066  0.0491
    1DIPC   PO4 9842  13.208   0.558   7.689  0.0218 -0.3322 -0.0133
    1DIPC   GL1 9843  13.139   0.568   7.289  0.0581 -0.2536 -0.0537
    1DIPC   GL2 9844  12.839   0.672   7.100  0.1675  0.1739  0.1406
    1DIPC   C1A 9845  13.389   0.488   6.974  0.0476 -0.0164  0.0765
    1DIPC   D2A 9846  13.858   0.376   6.814  0.0874  0.1409  0.0131
    1DIPC   D3A 9847  13.811  -0.076   6.712  0.0528  0.1369  0.1151
    1DIPC   C4A 9848  13.844  -0.261   6.322  0.0105 -0.0009  0.0186
    1DIPC   C1B 9849  12.939   0.722   6.744  0.1489 -0.1149 -0.1088
    1DIPC   D2B 9850  13.111   0.648   6.386  0.2122 -0.0140  0.0723
    1DIPC   D3B 9851  12.935   1.080   6.243 -0.2768  0.3998  0.2129
    1DIPC   C4B 9852  12.757   1.009   5.771  0.5869 -0.0772 -0.0799
    1DIPC   NC3 9853  22.965  13.080   6.550  0.1180  0.1720 -0.0575
    1DIPC   PO4 9854  22.463  13.081   6.598 -0.2264  0.0421 -0.3588
    1DIPC   GL1 9855  22.403  13.125   6.095  0.2665 -0.0709 -0.0440
    1DIPC   GL2 9856  22.166  13.315   6.079 -0.0436 -0.1174  0.0316
    1DIPC   C1A 9857  22.482  12.753   5.858 -0.6063  0.3537 -0.1823
    1DIPC   D2A 9858  22.661  12.334   5.629  0.0639 -0.1571  0.1877
    1DIPC   D3A 9859  22.302  12.116   5.448  0.2661 -0.0317  0.3019
    1DIPC   C4A 9860  22.398  11.815   5.155 -0.2790  0.2429  0.1373
    1DIPC   C1B 9861  22.083  13.072   5.653 -0.0032 -0.0304 -0.1026
    1DIPC   D2B 9862  21.855  12.833   5.356  0.0510  0.0060 -0.1307
    1DIPC   D3B 9863  21.982  13.241   5.190  0.1495 -0.2996  0.1676
    1DIPC   C4B 9864  22.280  13.423   5.353  0.4312 -0.1040  0.1477
    1DIPC   NC3 9865  23.627  23.125   7.120 -0.0741  0.0688 -0.0673
    1DIPC   PO4 9866  23.795  23.595   7.056 -0.0282 -0.1169 -0.1222
    1DIPC   GL1 9867  23.712  23.764   6.670  0.0231  0.2293 -0.3510
    1DIPC   GL2 9868  24.010  23.719   6.405  0.1134 -0.0258  0.2402
    1DIPC   C1A 9869  23.619  23.504   6.220  0.2397 -0.0920  0.3942
    1DIPC   D2A 9870  23.188  23.352   6.165  0.1649  0.0740  0.0938
    1DIPC   D3A 9871  22.788  23.429   6.361  0.0209  0.0292 -0.2988
    1DIPC   C4A 9872  22.441  23.062   6.278  0.0105 -0.2285 -0.5504
    1DIPC   C1B 9873  23.911  23.828   5.965 -0.1627 -0.2854 -0.2333
    1DIPC   D2B 9874  23.776  23.765   5.587  0.1826 -0.0195  0.0002
    1DIPC   D3B 9875  23.776  23.374   5.789 -0.1607 -0.2364  0.0604
    1DIPC   C4B 9876  23.804  23.149   5.401  0.0420 -0.3483 -0.0223
    1DIPC   NC3 9877  22.195  17.890   7.175 -0.0142 -0.0118 -0.1559
    1DIPC   PO4 9878  22.256  18.278   7.050  0.0145 -0.3209 -0.3037
    1DIPC   GL1 9879  22.286  18.132   6.638 -0.0891  0.0651 -0.0866
    1DIPC   GL2 9880  21.955  18.095   6.478  0.0046 -0.0891  0.1464
    1DIPC   C1A 9881  22.465  18.123   6.239  0.0053 -0.1037 -0.4068
    1DIPC   D2A 9882  22.560  18.154   5.778 -0.1826 -0.2208 -0.1063
    1DIPC   D3A 9883  22.922  17.987   5.635  0.1934 -0.2795  0.0667
    1DIPC   C4A 9884  22.856  17.564   5.484 -0.0676  0.1941 -0.2200
    1DIPC   C1B 9885  22.019  18.118   5.998  0.0694 -0.0482  0.0045
    1DIPC   D2B 9886  22.167  17.837   5.697 -0.1118  0.2530 -0.0950
    1DIPC   D3B 9887  22.536  17.886   5.338  0.1656  0.1646 -0.1720
    1DIPC   C4B 9888  22.817  18.251   5.243 -0.2048  0.0759 -0.2514
    1DIPC   NC3 9889   4.537   4.915   6.350  0.0781 -0.1647 -0.1500
    1DIPC   PO4 9890   4.359   4.523   6.400 -0.5026  0.0002 -0.0103
    1DIPC   GL1 9891   4.337   4.521   5.923 -0.0223 -0.0505 -0.1919
    1DIPC   GL2 9892   4.423   4.449   5.660 -0.0051  0.3137  0.2653
    1DIPC   C1A 9893   4.007   4.813   5.723  0.0954  0.0659 -0.0561
    1DIPC   D2A 9894   3.723   5.155   5.688 -0.1408 -0.0139 -0.2759
    1DIPC   D3A 9895   3.301   5.076   5.537 -0.2014  0.1483  0.0854
    1DIPC   C4A 9896   3.231   5.135   5.077  0.2055  0.2987  0.0113
    1DIPC   C1B 9897   4.554   4.300   5.408 -0.4411 -0.0090  0.0712
    1DIPC   D2B 9898   4.446   3.967   5.036 -0.3548  0.0768  0.1056
    1DIPC   D3B 9899   4.556   3.632   5.212  0.3365  0.1072 -0.1229
    1DIPC   C4B 9900   4.715   3.426   4.986 -0.2797 -0.1113 -0.1946
    1DIPC   NC3 9901  15.089  27.110   7.660  0.1295 -0.1590 -0.2046
    1DIPC   PO4 9902  14.836  26.895   7.319  0.0579 -0.3450  0.0014
    1DIPC   GL1 9903  14.684  26.968   6.951  0.1415  0.1924 -0.0520
    1DIPC   GL2 9904  15.001  27.085   6.672 -0.1268  0.1139 -0.2620
    1DIPC   C1A 9905  14.248  27.034   6.941 -0.3625 -0.3352  0.3701
    1DIPC   D2A 9906  13.879  26.728   6.939  0.0297  0.1716  0.1876
    1DIPC   D3A 9907  14.091  26.362   7.080  0.1775 -0.0395  0.1211
    1DIPC   C4A 9908  14.220  26.157   6.879 -0.0716  0.2616  0.0134
    1DIPC   C1B 9909  14.919  27.225   6.229  0.1905 -0.4558 -0.0101
    1DIPC   D2B 9910  14.672  27.312   5.967  0.2479 -0.2194  0.2170
    1DIPC   D3B 9911  14.917  27.659   6.030 -0.0296  0.0658  0.0374
    1DIPC   C4B 9912  15.392  27.637   6.288  0.2698 -0.1776 -0.0028
    1DIPC   NC3 9913  15.763  19.396   7.494  0.1874  0.0331 -0.0223
    1DIPC   PO4 9914  16.207  19.543   7.411  0.0800  0.0064  0.1656
    1DIPC   GL1 9915  16.451  19.526   7.038  0.1629  0.2474 -0.3389
    1DIPC   GL2 9916  16.741  19.615   7.242 -0.0803 -0.3505  0.2165
    1DIPC   C1A 9917  16.418  19.667   6.632 -0.0439 -0.4041  0.1042
    1DIPC   D2A 9918  16.438  19.700   6.251 -0.2610 -0.1116  0.3084
    1DIPC   D3A 9919  16.565  19.722   5.804 -0.5043  0.0615  0.0920
    1DIPC   C4A 9920  16.875  20.044   5.533  0.0301  0.0688 -0.1352
    1DIPC   C1B 9921  17.055  19.892   7.039 -0.2107 -0.0862 -0.1290
    1DIPC   D2B 9922  16.963  20.344   6.806 -0.2170  0.4131 -0.0514
    1DIPC   D3B 9923  17.225  20.401   6.427 -0.2345  0.0520 -0.2118
    1DIPC   C4B 9924  17.106  20.810   6.146  0.0447 -0.1427  0.1601
    1DIPC   NC3 9925  12.135  29.051   7.727  0.3738 -0.0479 -0.0554
    1DIPC   PO4 9926  11.889  28.763   7.547  0.0376  0.2102 -0.1378
    1DIPC   GL1 9927  12.130  28.838   7.178  0.0722  0.3173 -0.0887
    1DIPC   GL2 9928  12.259  29.174   7.147  0.0332  0.0651  0.1692
    1DIPC   C1A 9929  12.380  28.765   6.900 -0.1060  0.0392 -0.0945
    1DIPC   D2A 9930  12.547  28.579   6.567 -0.2522 -0.1011  0.2404
    1DIPC   D3A 9931  12.536  28.963   6.243  0.0288  0.2053 -0.0852
    1DIPC   C4A 9932  12.904  29.073   6.000 -0.1314 -0.0116 -0.0326
    1DIPC   C1B 9933  12.419  29.252   6.672 -0.0416 -0.3993 -0.3149
    1DIPC   D2B 9934  12.581  29.544   6.416 -0.0994  0.1245  0.0418
    1DIPC   D3B 9935  12.992  29.471   6.322  0.3735  0.2515 -0.0154
    1DIPC   C4B 9936  13.125  29.612   5.907  0.1576  0.2117  0.2689
    1DIPC   NC3 9937   6.065  24.651   6.910  0.1246  0.0415 -0.1050
    1DIPC   PO4 9938   5.934  24.977   6.659  0.1851 -0.2855  0.1188
    1DIPC   GL1 9939   5.895  25.231   6.260  0.2259 -0.1572  0.1084
    1DIPC   GL2 9940   6.125  25.555   6.338  0.3875  0.1404 -0.1617
    1DIPC   C1A 9941   5.897  25.510   5.895 -0.1477  0.1280  0.0148
    1DIPC   D2A 9942   5.766  25.693   5.467  0.1074 -0.1123 -0.0666
    1DIPC   D3A 9943   6.009  25.736   5.083 -0.0173  0.2164  0.0672
    1DIPC   C4A 9944   6.311  26.071   5.113  0.0214  0.2434  0.1589
    1DIPC   C1B 9945   5.956  25.978   6.173 -0.0829 -0.1213 -0.3872
    1DIPC   D2B 9946   6.049  26.349   6.192 -0.4140 -0.1031 -0.1347
    1DIPC   D3B 9947   5.586  26.506   6.100  0.3012  0.1373  0.1520
    1DIPC   C4B 9948   5.370  26.862   5.977 -0.2306 -0.1259 -0.1515
    1DIPC   NC3 9949  27.786  11.329   6.235  0.2240 -0.0310  0.1612
    1DIPC   PO4 9950  27.355  11.602   6.380 -0.1826  0.0165  0.1979
    1DIPC   GL1 9951  27.266  11.849   5.984  0.0217 -0.2029  0.1346
    1DIPC   GL2 9952  27.508  12.076   5.792  0.2175 -0.4093 -0.1065
    1DIPC   C1A 9953  27.001  11.910   5.604  0.0208  0.0696  0.0840
    1DIPC   D2A 9954  27.015  12.058   5.108 -0.2757  0.0017  0.1105
    1DIPC   D3A 9955  27.174  11.769   4.786  0.3603 -0.1450 -0.0043
    1DIPC   C4A 9956  26.950  11.465   4.494  0.1131 -0.2846  0.0838
    1DIPC   C1B 9957  27.343  12.293   5.388 -0.2947  0.3118 -0.0647
    1DIPC   D2B 9958  27.537  12.561   5.059  0.0601  0.2330  0.0505
    1DIPC   D3B 9959  27.671  12.733   5.443  0.0675 -0.3634 -0.0234
    1DIPC   C4B 9960  27.369  12.657   5.753 -0.0466  0.0709 -0.1441
    1DIPC   NC3 9961   4.480   8.174   6.624 -0.0145 -0.4374 -0.5223
    1DIPC   PO4 9962   4.540   7.895   6.247 -0.0943  0.1758  0.0276
    1DIPC   GL1 9963   4.584   7.807   5.844 -0.0133  0.1074 -0.1397
    1DIPC   GL2 9964   4.770   7.496   5.788 -0.1518 -0.0987  0.2637
    1DIPC   C1A 9965   4.859   7.967   5.670  0.1620 -0.1846  0.1234
    1DIPC   D2A 9966   5.118   8.316   5.429 -0.1630 -0.0767  0.2412
    1DIPC   D3A 9967   5.193   8.584   5.070 -0.1960  0.5083 -0.0167
    1DIPC   C4A 9968   5.099   8.429   4.619 -0.3822  0.2386 -0.1156
    1DIPC   C1B 9969   4.738   7.221   5.431 -0.1498 -0.1376 -0.1785
    1DIPC   D2B 9970   4.986   7.006   5.061 -0.1604 -0.0558 -0.0305
    1DIPC   D3B 9971   5.385   7.267   5.083  0.0785  0.2981 -0.3110
    1DIPC   C4B 9972   5.371   7.683   4.937  0.1962  0.1857  0.3627
    1DIPC   NC3 9973  20.173   4.127   6.530 -0.1194 -0.1154 -0.1039
    1DIPC   PO4 9974  20.563   4.426   6.576 -0.1354  0.2047  0.3668
    1DIPC   GL1 9975  20.449   4.426   6.168 -0.0302  0.0754  0.1727
    1DIPC   GL2 9976  20.211   4.320   6.049  0.1145 -0.2579 -0.0196
    1DIPC   C1A 9977  20.616   4.521   5.762  0.0440 -0.3020 -0.0891
    1DIPC   D2A 9978  20.702   4.532   5.311  0.3616  0.2600 -0.3245
    1DIPC   D3A 9979  20.465   4.952   5.163 -0.0677  0.1651 -0.0079
    1DIPC   C4A 9980  20.268   5.440   5.115 -0.1462 -0.1047 -0.2797
    1DIPC   C1B 9981  19.842   4.452   5.715 -0.0360  0.3960  0.0466
    1DIPC   D2B 9982  19.803   4.357   5.319  0.2444  0.0816  0.0706
    1DIPC   D3B 9983  20.216   4.396   5.345  0.1996  0.2087 -0.0419
    1DIPC   C4B 9984  20.513   4.090   5.431 -0.1422 -0.0028 -0.0461
    1DIPC   NC3 9985   0.681   2.131   6.416  0.1827 -0.0495 -0.1788
    1DIPC   PO4 9986   0.313   1.855   6.622 -0.2126  0.2682  0.0956
    1DIPC   GL1 9987   0.421   1.700   6.137 -0.1021  0.4808  0.1004
    1DIPC   GL2 9988   0.433   1.359   6.095  0.1681 -0.2728  0.1841
    1DIPC   C1A 9989   0.227   1.612   5.677 -0.2971  0.0894 -0.0451
    1DIPC   D2A 9990  -0.094   1.330   5.649 -0.0856  0.2055 -0.1609
    1DIPC   D3A 9991   0.278   1.064   5.381 -0.3527 -0.1980 -0.3279
    1DIPC   C4A 9992   0.324   1.084   4.893  0.2308  0.0788 -0.0425
    1DIPC   C1B 9993   0.623   1.250   5.773  0.2234 -0.2351  0.0640
    1DIPC   D2B 9994   0.805   1.440   5.430  0.1114 -0.1274 -0.1746
    1DIPC   D3B 9995   0.912   1.742   5.741 -0.0025 -0.0546 -0.1469
    1DIPC   C4B 9996   0.533   1.997   5.677 -0.1716 -0.0187 -0.1729
    1DIPC   NC3 9997  21.846  12.037   6.465 -0.0989  0.2379 -0.0889
    1DIPC   PO4 9998  21.906  12.518   6.603 -0.2360 -0.4110  0.1839
    1DIPC   GL1 9999  21.959  12.417   6.152  0.1439  0.1655 -0.1071
    1DIPC   GL210000  22.123  12.123   6.050  0.3430  0.2376 -0.3482
    1DIPC   C1A10001  22.054  12.552   5.745 -0.2449  0.0968  0.1033
    1DIPC   D2A10002  22.329  12.614   5.355  0.2717  0.1753  0.0093
    1DIPC   D3A10003  22.340  12.610   4.917 -0.0152 -0.0348  0.2393
    1DIPC   C4A10004  22.215  12.218   4.724 -0.0054  0.1034  0.2775
    1DIPC   C1B10005  21.923  12.035   5.733 -0.0309 -0.2836 -0.0306
    1DIPC   D2B10006  21.823  12.013   5.243  0.1332 -0.0275  0.0246
    1DIPC   D3B10007  22.052  11.717   4.802 -0.0359  0.1016 -0.2988
    1DIPC   C4B10008  21.901  11.821   4.440  0.3920  0.0450 -0.0672
    1DIPC   NC310009  17.512   1.847   6.927  0.2753  0.2113 -0.0443
    1DIPC   PO410010  17.578   2.187   6.675 -0.0373 -0.0187 -0.2163
    1DIPC   GL110011  17.532   1.904   6.350  0.0689  0.1357  0.0140
    1DIPC   GL210012  17.490   2.140   6.081  0.0096  0.1257  0.1114
    1DIPC   C1A10013  17.602   1.561   6.015  0.0275 -0.0540 -0.1236
    1DIPC   D2A10014  17.818   1.655   5.619 -0.1704 -0.0045  0.2393
    1DIPC   D3A10015  18.050   1.264   5.669 -0.5599  0.0258  0.1746
    1DIPC   C4A10016  18.100   0.879   5.465  0.3511  0.1616  0.1287
    1DIPC   C1B10017  17.420   2.131   5.616  0.0807 -0.1584  0.1211
    1DIPC   D2B10018  17.256   2.388   5.273  0.1534  0.1335 -0.0871
    1DIPC   D3B10019  17.668   2.492   5.336  0.0091 -0.0145 -0.2609
    1DIPC   C4B10020  17.646   2.961   5.194  0.2669  0.0287  0.0461
    1DIPC   NC310021   6.847  10.815   6.884  0.0287 -0.1818  0.1944
    1DIPC   PO410022   6.704  11.286   6.867  0.1283 -0.1795  0.0408
    1DIPC   GL110023   6.688  11.602   6.512  0.0011 -0.3342 -0.0158
    1DIPC   GL210024   6.410  11.519   6.474 -0.1625  0.2487  0.1979
    1DIPC   C1A10025   6.917  11.640   6.120 -0.1196  0.0673 -0.0370
    1DIPC   D2A10026   6.975  11.783   5.783 -0.0909  0.1221 -0.4432
    1DIPC   D3A10027   6.831  11.751   5.385 -0.1265  0.1001 -0.0504
    1DIPC   C4A10028   7.051  11.916   5.046 -0.0243  0.2342 -0.0718
    1DIPC   C1B10029   6.499  11.264   6.116 -0.0037  0.1637  0.1022
    1DIPC   D2B10030   6.593  11.458   5.742 -0.1552  0.0636  0.0213
    1DIPC   D3B10031   6.320  11.661   5.399 -0.1428  0.0835 -0.0044
    1DIPC   C4B10032   6.509  11.959   5.119 -0.0858 -0.1861 -0.1494
    1DIPC   NC310033  28.486  15.305   6.469  0.1851 -0.1997 -0.2506
    1DIPC   PO410034  28.880  15.329   6.172 -0.0924 -0.0748 -0.4219
    1DIPC   GL110035  28.887  15.334   5.699 -0.4146  0.1481 -0.2727
    1DIPC   GL210036  29.149  15.474   5.678 -0.2280  0.4666 -0.0200
    1DIPC   C1A10037  28.731  15.106   5.312 -0.0399  0.0843 -0.2802
    1DIPC   D2A10038  28.528  14.827   5.045  0.0359 -0.1447  0.3516
    1DIPC   D3A10039  28.797  14.849   4.608 -0.0308 -0.0199 -0.1956
    1DIPC   C4A10040  28.825  14.479   4.383  0.2406 -0.1060  0.4109
    1DIPC   C1B10041  29.347  15.127   5.357 -0.2379  0.0615 -0.0420
    1DIPC   D2B10042  29.515  14.690   5.203  0.2533  0.2834 -0.0672
    1DIPC   D3B10043  29.254  14.944   4.873 -0.1816  0.2332  0.0964
    1DIPC   C4B10044  29.457  15.406   4.671 -0.2526  0.0268  0.2354
    1DIPC   NC310045  25.915   7.624   6.528  0.2426 -0.1047  0.0329
    1DIPC   PO410046  25.921   8.057   6.256 -0.1317  0.2302  0.2047
    1DIPC   GL110047  26.005   8.235   5.816  0.1493 -0.2813 -0.0717
    1DIPC   GL210048  25.735   8.052   5.692  0.2048 -0.3062 -0.0029
    1DIPC   C1A10049  26.278   8.206   5.536 -0.0355  0.1204 -0.0778
    1DIPC   D2A10050  26.535   7.882   5.351  0.1447  0.0034  0.3287
    1DIPC   D3A10051  26.203   7.595   5.451 -0.2480  0.1747  0.0904
    1DIPC   C4A10052  26.203   7.190   5.417  0.3777  0.0800 -0.0003
    1DIPC   C1B10053  25.808   7.964   5.290  0.1417  0.0719  0.1268
    1DIPC   D2B10054  25.885   8.128   4.875 -0.3167  0.1690 -0.2944
    1DIPC   D3B10055  26.278   8.225   4.608  0.0755 -0.0398  0.2273
    1DIPC   C4B10056  26.495   7.941   4.387  0.0158 -0.0216 -0.1254
    1DIPC   NC310057  25.666  24.117   6.562 -0.0175 -0.0109  0.1758
    1DIPC   PO410058  25.594  24.605   6.403  0.0046 -0.0406 -0.0042
    1DIPC   GL110059  25.616  24.486   5.980  0.0482 -0.3003 -0.1460
    1DIPC   GL210060  25.420  24.198   6.047  0.0246  0.1017  0.1298
    1DIPC   C1A10061  25.876  24.306   5.711  0.1948 -0.1855  0.0589
    1DIPC   D2A10062  25.883  24.440   5.394  0.1950  0.0914  0.1630
    1DIPC   D3A10063  26.302  24.522   5.548  0.1476 -0.2056 -0.1182
    1DIPC   C4A10064  26.618  24.513   5.270 -0.0811 -0.2513 -0.1009
    1DIPC   C1B10065  25.168  24.445   5.696 -0.1085 -0.0092  0.0515
    1DIPC   D2B10066  24.863  24.157   5.350  0.2738  0.0141 -0.3721
    1DIPC   D3B10067  25.080  23.887   5.089 -0.0764  0.0572 -0.0075
    1DIPC   C4B10068  24.808  23.445   4.841 -0.2098  0.1422 -0.0888
    1DIPC   NC310069  21.354   5.891   6.760  0.0472 -0.1924 -0.1595
    1DIPC   PO410070  21.039   6.180   6.987 -0.0903  0.0768 -0.3672
    1DIPC   GL110071  21.109   6.340   6.571 -0.1957  0.0522 -0.0502
    1DIPC   GL210072  21.517   6.316   6.392  0.2732  0.2841  0.0908
    1DIPC   C1A10073  21.171   6.698   6.356 -0.0252  0.3667 -0.0738
    1DIPC   D2A10074  21.348   7.183   6.271 -0.0189  0.0397  0.0157
    1DIPC   D3A10075  21.064   6.974   5.972 -0.0581 -0.2689  0.2925
    1DIPC   C4A10076  21.050   6.499   5.913 -0.0331  0.0188  0.1163
    1DIPC   C1B10077  21.515   6.278   5.960  0.0691  0.0531 -0.1329
    1DIPC   D2B10078  21.463   6.119   5.616 -0.0202 -0.1456  0.3077
    1DIPC   D3B10079  21.677   6.374   5.235  0.1108  0.2374  0.1456
    1DIPC   C4B10080  21.655   6.036   5.023  0.0694 -0.1058  0.0245
    1DIPC   NC310081  24.900  14.132   5.527 -0.0772 -0.1009 -0.0139
    1DIPC   PO410082  25.264  14.011   5.473 -0.1021 -0.0847 -0.1293
    1DIPC   GL110083  25.124  14.110   5.080  0.0451  0.0992 -0.0333
    1DIPC   GL210084  24.936  13.924   4.971 -0.3231 -0.0190 -0.2244
    1DIPC   C1A10085  25.023  14.333   4.680 -0.1461  0.2958 -0.4031
    1DIPC   D2A10086  25.184  14.598   4.399 -0.3319 -0.1432 -0.1267
    1DIPC   D3A10087  24.910  14.627   4.017 -0.0381 -0.1554 -0.0219
    1DIPC   C4A10088  24.883  15.008   3.769 -0.0833 -0.2893 -0.0814
    1DIPC   C1B10089  24.663  13.899   4.631 -0.1582 -0.1829 -0.1137
    1DIPC   D2B10090  24.495  13.822   4.258  0.1073  0.1389  0.0975
    1DIPC   D3B10091  24.734  13.776   3.954 -0.4676 -0.3530 -0.1816
    1DIPC   C4B10092  25.082  13.535   3.961 -0.0231 -0.2574 -0.1079
    1DIPC   NC310093  21.472  20.190   7.261 -0.2380  0.0197  0.0572
    1DIPC   PO410094  21.429  19.718   7.152 -0.0953 -0.3236 -0.1932
    1DIPC   GL110095  21.201  19.697   6.754 -0.4126  0.2110 -0.0915
    1DIPC   GL210096  21.110  20.025   6.674 -0.3281 -0.0603  0.2750
    1DIPC   C1A10097  21.451  19.575   6.363  0.1395  0.3552  0.0948
    1DIPC   D2A10098  21.656  19.657   5.879  0.0417  0.2804 -0.2328
    1DIPC   D3A10099  22.039  19.857   6.018 -0.2312  0.0957 -0.1427
    1DIPC   C4A10100  22.136  20.126   5.705  0.2634  0.1156  0.0826
    1DIPC   C1B10101  21.132  20.018   6.205  0.1742 -0.3696  0.4052
    1DIPC   D2B10102  20.706  20.071   5.979 -0.0683  0.0462  0.1015
    1DIPC   D3B10103  20.833  19.681   5.842 -0.0847 -0.1307 -0.2382
    1DIPC   C4B10104  20.851  19.209   5.894  0.0738  0.1760  0.2249
    1DIPC   NC310105  16.983  28.142   7.566  0.1863  0.1962 -0.2207
    1DIPC   PO410106  17.068  27.824   7.427  0.0506 -0.1193 -0.2357
    1DIPC   GL110107  17.079  27.784   7.043 -0.0131  0.0321 -0.1785
    1DIPC   GL210108  17.040  27.460   6.951  0.1997 -0.2510 -0.0712
    1DIPC   C1A10109  17.355  27.857   6.752  0.3007  0.3380 -0.2496
    1DIPC   D2A10110  17.214  28.027   6.403  0.4325 -0.0857 -0.1109
    1DIPC   D3A10111  17.558  28.160   6.199 -0.0852  0.1537 -0.2292
    1DIPC   C4A10112  17.447  28.169   5.793  0.2564  0.1584 -0.3306
    1DIPC   C1B10113  16.857  27.572   6.598 -0.2678  0.1567 -0.1508
    1DIPC   D2B10114  16.760  28.005   6.678  0.3681 -0.1001 -0.1644
    1DIPC   D3B10115  16.419  28.254   6.721  0.1667  0.1454  0.2786
    1DIPC   C4B10116  16.210  28.374   6.313  0.0484  0.0177  0.0326
    1DIPC   NC310117  12.912   1.937   7.233 -0.2224 -0.0973  0.1529
    1DIPC   PO410118  12.965   2.343   6.927  0.1067  0.0370 -0.2955
    1DIPC   GL110119  12.791   1.992   6.740  0.3876 -0.0502  0.0382
    1DIPC   GL210120  12.807   1.691   6.827 -0.3333  0.1801  0.1026
    1DIPC   C1A10121  13.005   1.888   6.402  0.1077  0.0879  0.1833
    1DIPC   D2A10122  13.246   1.856   6.084  0.2709  0.0716 -0.0136
    1DIPC   D3A10123  13.419   1.968   5.739  0.0966  0.2088  0.3090
    1DIPC   C4A10124  13.862   1.661   5.642 -0.0305 -0.1318  0.3496
    1DIPC   C1B10125  12.682   1.548   6.442  0.1270 -0.1008 -0.3167
    1DIPC   D2B10126  12.841   1.587   5.992 -0.0148  0.2075  0.1141
    1DIPC   D3B10127  12.614   1.492   5.595 -0.2454  0.0251  0.2600
    1DIPC   C4B10128  12.824   1.218   5.267 -0.0526 -0.1670  0.1752
    1DIPC   NC310129   2.525  23.417   6.474 -0.2544 -0.1028  0.3109
    1DIPC   PO410130   2.238  23.357   6.185 -0.0857  0.2064 -0.1417
    1DIPC   GL110131   2.326  23.314   5.822  0.0507 -0.3813  0.1623
    1DIPC   GL210132   2.190  23.143   5.642  0.1870  0.3514  0.1646
    1DIPC   C1A10133   2.287  23.655   5.508  0.0319  0.2113 -0.1836
    1DIPC   D2A10134   2.240  23.882   5.170 -0.0405 -0.0097  0.1620
    1DIPC   D3A10135   2.162  23.485   5.046  0.3227 -0.2236 -0.0995
    1DIPC   C4A10136   2.182  23.215   4.753  0.0020  0.1193  0.1005
    1DIPC   C1B10137   1.798  23.179   5.350  0.1262  0.2167 -0.1395
    1DIPC   D2B10138   1.612  23.378   4.894 -0.0212  0.2572 -0.0431
    1DIPC   D3B10139   1.474  23.260   4.572 -0.1352  0.0495 -0.0280
    1DIPC   C4B10140   1.432  23.491   4.231 -0.3311 -0.1091  0.1628
    1DIPC   NC310141   0.999  21.001   5.729 -0.1917  0.1576 -0.2446
    1DIPC   PO410142   0.890  20.579   5.777 -0.1291  0.0083 -0.2285
    1DIPC   GL110143   0.851  20.662   5.327  0.1357 -0.1076 -0.1571
    1DIPC   GL210144   0.644  20.979   5.349 -0.1059  0.0702 -0.1533
    1DIPC   C1A10145   0.660  20.538   4.941  0.1531 -0.1539 -0.1150
    1DIPC   D2A10146   0.405  20.332   4.844 -0.0620 -0.0347 -0.3665
    1DIPC   D3A10147   0.701  20.264   4.512  0.1709  0.1460 -0.1181
    1DIPC   C4A10148   0.461  19.946   4.249  0.0555 -0.1094 -0.0953
    1DIPC   C1B10149   0.438  21.179   4.980 -0.2234 -0.1563 -0.0371
    1DIPC   D2B10150   0.371  20.888   4.608 -0.2255  0.1644 -0.0228
    1DIPC   D3B10151   0.589  20.924   4.208  0.1584 -0.2279 -0.0287
    1DIPC   C4B10152   0.467  21.148   3.864  0.1686  0.0752  0.1410
    1DIPC   NC310153  19.204  24.726   6.286 -0.1673 -0.0418  0.0738
    1DIPC   PO410154  18.761  24.873   6.413 -0.0319  0.1987 -0.0070
    1DIPC   GL110155  18.639  25.117   6.093 -0.2342  0.0333  0.0771
    1DIPC   GL210156  18.771  25.389   6.022 -0.2449 -0.0450 -0.1118
    1DIPC   C1A10157  18.348  25.022   5.739  0.0835 -0.1683 -0.2785
    1DIPC   D2A10158  18.284  24.536   5.572 -0.1871  0.2726 -0.1225
    1DIPC   D3A10159  18.037  24.863   5.341  0.2391  0.0737 -0.1640
    1DIPC   C4A10160  17.847  25.230   5.433  0.1941  0.0072  0.0472
    1DIPC   C1B10161  18.791  25.201   5.595 -0.0630 -0.1648  0.5822
    1DIPC   D2B10162  18.619  24.832   5.281 -0.2009 -0.0814 -0.1038
    1DIPC   D3B10163  19.021  24.974   5.210  0.2964 -0.2213 -0.0532
    1DIPC   C4B10164  19.475  24.966   4.998  0.0647  0.1366  0.2264
    1DIPC   NC310165  27.693   8.577   6.455  0.1100  0.0817 -0.0726
    1DIPC   PO410166  27.784   8.218   6.115  0.0582  0.0204 -0.1170
    1DIPC   GL110167  28.137   8.065   5.863  0.2779  0.1424  0.1337
    1DIPC   GL210168  28.473   8.274   5.733  0.0217 -0.0720 -0.2872
    1DIPC   C1A10169  28.118   8.084   5.396  0.2392  0.0557  0.1854
    1DIPC   D2A10170  28.300   8.096   5.009 -0.2053 -0.0161 -0.3558
    1DIPC   D3A10171  28.740   7.950   5.196  0.1304  0.0507  0.1021
    1DIPC   C4A10172  28.971   7.891   4.857 -0.0489 -0.2132  0.2477
    1DIPC   C1B10173  28.580   8.479   5.356 -0.3411 -0.0848  0.1977
    1DIPC   D2B10174  28.659   8.391   4.933 -0.0939  0.3064  0.0854
    1DIPC   D3B10175  28.586   8.656   4.607 -0.2276  0.0250  0.1333
    1DIPC   C4B10176  28.174   8.700   4.486 -0.0479 -0.2635 -0.0181
    1DIPC   NC310177   4.235   8.824   6.834 -0.1024  0.1416 -0.2840
    1DIPC   PO410178   4.192   8.590   6.433  0.2300  0.0491 -0.2558
    1DIPC   GL110179   4.027   8.536   6.063 -0.0987  0.2193  0.0659
    1DIPC   GL210180   3.974   8.833   5.860 -0.0272  0.1385  0.1944
    1DIPC   C1A10181   3.766   8.426   5.739  0.1520  0.1674  0.2535
    1DIPC   D2A10182   3.479   8.085   5.604 -0.1410  0.1532  0.1895
    1DIPC   D3A10183   3.474   8.174   5.088  0.2479  0.0082  0.4956
    1DIPC   C4A10184   3.484   8.154   4.608 -0.0101 -0.2882  0.3909
    1DIPC   C1B10185   3.870   8.906   5.449  0.2680  0.0764 -0.1586
    1DIPC   D2B10186   3.734   9.254   5.024 -0.3095 -0.1443  0.1887
    1DIPC   D3B10187   3.952   9.274   4.740 -0.3992 -0.0952 -0.0993
    1DIPC   C4B10188   4.321   9.452   4.737  0.2024  0.2626 -0.1393
    1DIPC   NC310189  22.353   9.791   6.860 -0.0163  0.1444  0.2263
    1DIPC   PO410190  22.560   9.428   6.715  0.2095  0.1554  0.0332
    1DIPC   GL110191  22.892   9.639   6.415  0.3676 -0.0611  0.1155
    1DIPC   GL210192  22.648   9.861   6.382 -0.0324 -0.1171  0.1590
    1DIPC   C1A10193  22.936   9.935   5.973  0.0502  0.0869 -0.3611
    1DIPC   D2A10194  22.971   9.847   5.498 -0.2444  0.2405  0.0067
    1DIPC   D3A10195  22.598   9.838   5.207  0.0394  0.2333 -0.0600
    1DIPC   C4A10196  22.369   9.450   5.252 -0.0907 -0.0503  0.1340
    1DIPC   C1B10197  22.373   9.816   6.005 -0.3012  0.0256  0.0480
    1DIPC   D2B10198  22.315   9.629   5.708  0.0896  0.1019  0.0643
    1DIPC   D3B10199  22.113   9.942   5.431 -0.2442  0.1334 -0.1520
    1DIPC   C4B10200  22.228  10.281   5.147  0.2400 -0.2410  0.1877
    1DIPC   NC310201  27.899  10.338   6.253 -0.0075 -0.2828 -0.1573
    1DIPC   PO410202  27.684   9.959   6.423  0.0182  0.2608  0.0353
    1DIPC   GL110203  27.559  10.010   6.028  0.1089 -0.3174  0.1275
    1DIPC   GL210204  27.767   9.976   5.812  0.1747  0.0521  0.1630
    1DIPC   C1A10205  27.192  10.054   5.793  0.0802  0.1718 -0.0130
    1DIPC   D2A10206  27.108  10.397   5.609  0.1646 -0.0153  0.0361
    1DIPC   D3A10207  27.315  10.129   5.260 -0.1097  0.0765 -0.1090
    1DIPC   C4A10208  27.004   9.828   5.192  0.1487  0.2278  0.0584
    1DIPC   C1B10209  27.812  10.049   5.363 -0.0039  0.0483 -0.1857
    1DIPC   D2B10210  27.668  10.176   4.825 -0.4228  0.3575 -0.0576
    1DIPC   D3B10211  27.230  10.134   4.759  0.1872  0.2101 -0.1509
    1DIPC   C4B10212  27.231   9.816   4.378 -0.0113  0.2498 -0.3529
    1DIPC   NC310213  11.710  25.744   7.721 -0.3488 -0.0770  0.3213
    1DIPC   PO410214  12.000  25.896   7.315 -0.3216  0.0082 -0.1557
    1DIPC   GL110215  12.202  25.975   7.006 -0.2219  0.0374  0.2939
    1DIPC   GL210216  12.395  26.245   7.021  0.0872  0.2841  0.0741
    1DIPC   C1A10217  12.139  26.049   6.567  0.1196  0.4433 -0.0283
    1DIPC   D2A10218  11.986  26.342   6.164 -0.1662 -0.2971  0.1355
    1DIPC   D3A10219  12.082  26.588   5.853  0.2893 -0.0512 -0.1515
    1DIPC   C4A10220  12.413  26.537   5.737  0.2161 -0.1879 -0.1118
    1DIPC   C1B10221  12.609  26.180   6.704 -0.4029 -0.1497 -0.1589
    1DIPC   D2B10222  12.482  26.294   6.293  0.1657  0.1726 -0.2060
    1DIPC   D3B10223  12.437  26.789   6.171  0.1333  0.0833  0.1207
    1DIPC   C4B10224  12.239  27.095   5.957  0.0964  0.4521 -0.4090
    1DIPC   NC310225  19.411  26.287   6.706 -0.0995  0.0720  0.3417
    1DIPC   PO410226  19.156  26.587   6.521  0.2313  0.0768  0.1803
    1DIPC   GL110227  18.899  26.905   6.182 -0.0430 -0.0729 -0.0569
    1DIPC   GL210228  18.589  27.125   6.229  0.0511  0.1558  0.0693
    1DIPC   C1A10229  18.574  26.905   5.785 -0.0258 -0.1610 -0.0168
    1DIPC   D2A10230  18.163  26.631   5.897  0.3096  0.2428  0.1695
    1DIPC   D3A10231  17.875  26.778   6.257  0.2333  0.1271 -0.1167
    1DIPC   C4A10232  17.843  26.981   6.637  0.2778 -0.2282 -0.1155
    1DIPC   C1B10233  18.337  27.334   5.938  0.0586 -0.2271 -0.2841
    1DIPC   D2B10234  18.055  27.200   5.729 -0.1548  0.1266 -0.1365
    1DIPC   D3B10235  17.939  27.633   5.961 -0.0520  0.0044 -0.0196
    1DIPC   C4B10236  17.865  27.945   5.650 -0.2153 -0.3649  0.2985
    1DIPC   NC310237   0.390  11.978   6.211 -0.2147  0.0582 -0.2196
    1DIPC   PO410238   0.830  12.033   6.204  0.2275 -0.1006  0.0204
    1DIPC   GL110239   0.986  11.950   5.801 -0.1223 -0.2513 -0.2799
    1DIPC   GL210240   1.173  12.157   5.699 -0.2833 -0.1985  0.1011
    1DIPC   C1A10241   0.983  11.764   5.404  0.1246 -0.2007  0.0450
    1DIPC   D2A10242   0.624  11.807   5.104 -0.1581  0.0450 -0.1655
    1DIPC   D3A10243   0.844  11.901   4.792 -0.1007  0.1993  0.1372
    1DIPC   C4A10244   1.184  12.270   4.711 -0.1976 -0.0053  0.2435
    1DIPC   C1B10245   1.457  11.774   5.631 -0.0038 -0.3187  0.0247
    1DIPC   D2B10246   1.329  11.394   5.424  0.0977  0.0819  0.2412
    1DIPC   D3B10247   1.320  11.485   5.016  0.0169 -0.0254 -0.3570
    1DIPC   C4B10248   1.231  11.106   4.703  0.1526 -0.3429  0.1230
    1DIPC   NC310249  28.242   7.691   6.135 -0.4220  0.0542  0.0976
    1DIPC   PO410250  28.670   7.683   6.199  0.2547  0.0126 -0.0321
    1DIPC   GL110251  28.752   7.851   5.819 -0.2731 -0.0310  0.2428
    1DIPC   GL210252  28.509   7.752   5.605 -0.1571  0.0667  0.0505
    1DIPC   C1A10253  28.977   8.290   5.656 -0.0383  0.1937  0.0801
    1DIPC   D2A10254  29.109   8.435   5.273  0.2202 -0.0514  0.1843
    1DIPC   D3A10255  29.346   8.390   4.835 -0.0793  0.2401  0.1702
    1DIPC   C4A10256  28.977   8.309   4.550 -0.1029  0.1867  0.0120
    1DIPC   C1B10257  28.949   7.613   5.465 -0.1775 -0.0927  0.0987
    1DIPC   D2B10258  29.214   7.299   5.596  0.4868  0.1033  0.4265
    1DIPC   D3B10259  28.951   6.982   5.620 -0.0633  0.1887 -0.0225
    1DIPC   C4B10260  28.699   6.839   5.223 -0.1061 -0.1172 -0.0141
    1DIPC   NC310261  17.604  27.773   7.287  0.0349  0.0087 -0.1933
    1DIPC   PO410262  17.833  28.201   7.215 -0.0497 -0.0292  0.0791
    1DIPC   GL110263  17.841  27.898   6.871  0.0487  0.2010 -0.2182
    1DIPC   GL210264  17.944  28.039   6.601  0.1039 -0.2510  0.0408
    1DIPC   C1A10265  17.729  27.595   6.563 -0.1694  0.0253 -0.1109
    1DIPC   D2A10266  17.520  27.648   6.262  0.0947 -0.0308  0.0863
    1DIPC   D3A10267  17.456  27.653   5.772 -0.0089  0.2506  0.0036
    1DIPC   C4A10268  17.128  27.824   5.524  0.0709 -0.0111  0.0374
    1DIPC   C1B10269  17.945  28.504   6.414  0.4166  0.2317 -0.3002
    1DIPC   D2B10270  17.707  28.634   6.068 -0.1862  0.0698  0.2154
    1DIPC   D3B10271  17.876  28.516   5.686  0.0284 -0.1334 -0.2006
    1DIPC   C4B10272  17.513  28.417   5.363 -0.1077  0.1553  0.1429
    1DIPC   NC310273  24.716  18.155   6.401  0.0192 -0.2072  0.3269
    1DIPC   PO410274  25.095  18.269   6.393 -0.1300  0.1859  0.2971
    1DIPC   GL110275  25.052  18.168   6.007 -0.1403 -0.1765 -0.1152
    1DIPC   GL210276  24.726  17.875   5.989  0.2727  0.1686 -0.0117
    1DIPC   C1A10277  25.349  18.224   5.606  0.0039  0.1279  0.0803
    1DIPC   D2A10278  25.855  18.182   5.498  0.0958  0.0633  0.1985
    1DIPC   D3A10279  26.023  18.664   5.266  0.0217  0.0746  0.1174
    1DIPC   C4A10280  25.965  18.793   4.871  0.1026  0.0323  0.3521
    1DIPC   C1B10281  24.375  17.764   5.762  0.1066 -0.0903  0.1166
    1DIPC   D2B10282  24.169  18.120   5.721  0.2251 -0.0769  0.0094
    1DIPC   D3B10283  24.028  18.211   5.296  0.0758  0.1329  0.1796
    1DIPC   C4B10284  24.024  17.898   4.922  0.0994  0.1661  0.2946
    1DIPC   NC310285  15.225   1.376   7.741 -0.0613 -0.0672  0.2559
    1DIPC   PO410286  15.563   1.297   7.402  0.3437  0.4211 -0.0085
    1DIPC   GL110287  15.433   1.126   6.985 -0.4676  0.3952  0.1949
    1DIPC   GL210288  15.638   1.417   6.875 -0.4212 -0.0237 -0.1021
    1DIPC   C1A10289  15.144   1.364   6.696 -0.1371 -0.0391  0.0641
    1DIPC   D2A10290  14.838   1.475   6.420  0.1116  0.0961 -0.1611
    1DIPC   D3A10291  14.727   1.086   6.646  0.0289  0.0361  0.3845
    1DIPC   C4A10292  15.049   0.880   6.854  0.0222 -0.0907 -0.0623
    1DIPC   C1B10293  15.767   1.571   6.567  0.1146  0.0051 -0.2869
    1DIPC   D2B10294  15.645   1.896   6.291 -0.0322 -0.2729  0.3508
    1DIPC   D3B10295  15.552   1.855   5.917  0.0123  0.3861  0.1369
    1DIPC   C4B10296  15.382   1.663   5.628  0.3845  0.1134  0.3871
    1DIPC   NC310297  27.003  26.226   6.399 -0.1890  0.0703 -0.0837
    1DIPC   PO410298  27.323  25.910   6.403 -0.0478  0.2046 -0.1336
    1DIPC   GL110299  27.398  26.084   5.919  0.1341  0.0751  0.1818
    1DIPC   GL210300  27.305  25.689   5.708  0.0073 -0.4575  0.1874
    1DIPC   C1A10301  27.675  26.371   5.764 -0.2171  0.0560  0.0509
    1DIPC   D2A10302  28.050  26.387   5.571  0.4034 -0.1154 -0.0188
    1DIPC   D3A10303  27.852  26.329   5.225 -0.3720  0.2674  0.0926
    1DIPC   C4A10304  27.864  26.649   5.003 -0.3707  0.0875 -0.2675
    1DIPC   C1B10305  27.687  25.432   5.515 -0.3274 -0.1063  0.2312
    1DIPC   D2B10306  27.789  25.403   5.067 -0.1103  0.1659 -0.2197
    1DIPC   D3B10307  27.445  25.170   5.095  0.0119  0.0764  0.0077
    1DIPC   C4B10308  27.484  24.868   4.731 -0.1441 -0.1188  0.0153
    1DIPC   NC310309   8.222   6.098   7.286 -0.2723 -0.1058  0.0197
    1DIPC   PO410310   7.998   6.426   6.946 -0.1096 -0.0418  0.1023
    1DIPC   GL110311   8.276   6.258   6.661  0.1308 -0.0126 -0.0109
    1DIPC   GL210312   8.416   6.612   6.610  0.0683  0.0312  0.0750
    1DIPC   C1A10313   8.388   6.103   6.266 -0.0486  0.1738  0.1246
    1DIPC   D2A10314   8.701   6.129   6.004  0.3035  0.0939  0.2203
    1DIPC   D3A10315   8.838   6.463   6.250  0.2148 -0.2079 -0.2537
    1DIPC   C4A10316   8.698   6.908   6.253  0.0260  0.2983  0.1472
    1DIPC   C1B10317   8.400   6.576   6.089 -0.1056 -0.1163 -0.0076
    1DIPC   D2B10318   8.128   6.703   5.732  0.1664 -0.3379 -0.1600
    1DIPC   D3B10319   8.210   6.735   5.354  0.0633  0.3199  0.0409
    1DIPC   C4B10320   8.625   6.560   5.096 -0.2685 -0.1076  0.0820
    1DIPC   NC310321   2.424  24.909   6.492 -0.1029  0.1705  0.3289
    1DIPC   PO410322   2.288  25.169   6.234 -0.0224  0.4086  0.1405
    1DIPC   GL110323   2.064  25.005   5.859 -0.3634 -0.1044  0.0463
    1DIPC   GL210324   2.124  24.605   5.863  0.2531 -0.2895 -0.0729
    1DIPC   C1A10325   1.847  25.108   5.496  0.0099 -0.1276  0.0006
    1DIPC   D2A10326   1.746  25.362   5.158  0.1188 -0.1016 -0.0608
    1DIPC   D3A10327   1.837  25.550   4.761 -0.0862 -0.2250 -0.0170
    1DIPC   C4A10328   2.294  25.657   4.674  0.0613 -0.1180 -0.1255
    1DIPC   C1B10329   2.153  24.683   5.495 -0.1696  0.4359 -0.2793
    1DIPC   D2B10330   2.042  24.791   5.083 -0.0709  0.1635 -0.1272
    1DIPC   D3B10331   2.164  25.195   4.864 -0.2775  0.0399 -0.3138
    1DIPC   C4B10332   2.496  25.242   4.563  0.2121  0.3105  0.2194
    1DIPC   NC310333   1.961  20.831   6.071 -0.2189 -0.1589  0.1107
    1DIPC   PO410334   1.842  20.633   5.595  0.0042  0.3265  0.1635
    1DIPC   GL110335   1.628  20.260   5.282 -0.1214  0.0610 -0.1074
    1DIPC   GL210336   1.518  20.061   5.142  0.0530 -0.0310 -0.1643
    1DIPC   C1A10337   1.733  20.384   4.862 -0.1044 -0.0351 -0.1988
    1DIPC   D2A10338   1.727  20.056   4.552  0.1823  0.1483  0.2029
    1DIPC   D3A10339   2.039  20.020   4.914 -0.3502  0.2206 -0.0998
    1DIPC   C4A10340   2.527  20.000   4.955 -0.2345 -0.0418  0.0761
    1DIPC   C1B10341   1.382  19.714   4.864 -0.0839 -0.2255 -0.2062
    1DIPC   D2B10342   1.315  19.542   4.557  0.1758  0.0388  0.1272
    1DIPC   D3B10343   1.652  19.205   4.525  0.1885 -0.2335  0.1837
    1DIPC   C4B10344   1.598  18.830   4.214 -0.3378 -0.2673  0.2872
    1DIPC   NC310345   0.026   4.633   6.011 -0.1012 -0.5751  0.1934
    1DIPC   PO410346  -0.383   4.729   5.679 -0.4069  0.2136  0.3467
    1DIPC   GL110347  -0.606   4.504   5.548 -0.0233 -0.0683  0.0337
    1DIPC   GL210348  -0.955   4.568   5.602 -0.2706  0.0193  0.1756
    1DIPC   C1A10349  -0.721   4.409   5.121 -0.0838 -0.0126  0.0801
    1DIPC   D2A10350  -1.040   4.229   4.902  0.1757  0.1668 -0.1936
    1DIPC   D3A10351  -0.706   4.044   4.768  0.0010 -0.0682 -0.2572
    1DIPC   C4A10352  -0.733   4.088   4.292 -0.0896  0.2792  0.3036
    1DIPC   C1B10353  -1.224   4.547   5.267 -0.1506  0.0506 -0.1105
    1DIPC   D2B10354  -1.509   4.638   4.871 -0.2406 -0.2080 -0.0507
    1DIPC   D3B10355  -1.039   4.854   4.683  0.0017  0.0395  0.2045
    1DIPC   C4B10356  -0.778   4.618   4.589 -0.0165 -0.1479  0.1190
    1DIPC   NC310357  27.654  18.769   6.524  0.0802  0.0017 -0.0880
    1DIPC   PO410358  27.577  18.739   6.139 -0.2103 -0.2346 -0.0654
    1DIPC   GL110359  27.571  18.752   5.703 -0.1164 -0.1196 -0.1516
    1DIPC   GL210360  27.777  18.935   5.505  0.0128  0.2497 -0.0750
    1DIPC   C1A10361  27.323  18.732   5.273 -0.0628  0.0494  0.1034
    1DIPC   D2A10362  27.296  18.746   4.795 -0.1084 -0.1843 -0.1378
    1DIPC   D3A10363  27.707  18.699   4.877 -0.1095  0.0261 -0.1807
    1DIPC   C4A10364  27.836  18.503   5.243  0.1033  0.0171  0.1835
    1DIPC   C1B10365  27.559  19.116   5.143  0.4471  0.2735  0.0518
    1DIPC   D2B10366  27.657  19.259   4.886 -0.1352  0.0881  0.1183
    1DIPC   D3B10367  27.272  19.287   4.745  0.0928  0.0460  0.0485
    1DIPC   C4B10368  27.035  19.158   4.362 -0.1427  0.0605 -0.1222
    1DIPC   NC310369  26.569  27.942   6.846  0.1485  0.1526  0.0871
    1DIPC   PO410370  26.506  28.126   6.446 -0.2380 -0.1812  0.2281
    1DIPC   GL110371  26.283  27.826   6.151  0.0111 -0.0240 -0.0904
    1DIPC   GL210372  26.223  27.482   6.283 -0.0597  0.1522  0.0734
    1DIPC   C1A10373  26.015  27.746   5.705 -0.1744 -0.0832  0.1777
    1DIPC   D2A10374  26.156  27.765   5.220 -0.0619 -0.1275  0.0359
    1DIPC   D3A10375  26.534  27.960   5.323 -0.3874  0.3368 -0.2802
    1DIPC   C4A10376  26.888  28.260   5.502  0.0661 -0.1288  0.0786
    1DIPC   C1B10377  26.432  27.417   5.842  0.4245  0.0127  0.1075
    1DIPC   D2B10378  26.715  27.665   5.722  0.0181  0.1817  0.1851
    1DIPC   D3B10379  26.837  27.518   5.276  0.1300 -0.0601 -0.1110
    1DIPC   C4B10380  26.747  27.166   4.881 -0.0451  0.1954  0.0116
    1DIPC   NC310381  14.358   4.626   7.615  0.1930 -0.0661 -0.0521
    1DIPC   PO410382  14.820   4.462   7.558 -0.0990  0.1370 -0.3805
    1DIPC   GL110383  14.665   4.689   7.172  0.1633  0.3492 -0.2422
    1DIPC   GL210384  15.027   4.792   6.966 -0.1856 -0.0913 -0.0067
    1DIPC   C1A10385  14.414   4.887   6.871  0.0051  0.3698 -0.0139
    1DIPC   D2A10386  14.255   4.984   6.438 -0.3745 -0.1461  0.0263
    1DIPC   D3A10387  13.883   5.013   6.469 -0.4376  0.1885 -0.0345
    1DIPC   C4A10388  13.869   5.463   6.575  0.0501  0.3122 -0.1303
    1DIPC   C1B10389  15.112   4.770   6.561 -0.2638  0.2225  0.3400
    1DIPC   D2B10390  15.113   4.655   6.157  0.0330 -0.0859 -0.0176
    1DIPC   D3B10391  15.490   4.472   5.798  0.3526 -0.0709 -0.3311
    1DIPC   C4B10392  15.419   4.434   5.478 -0.0992  0.0434 -0.0125
    1DIPC   NC310393   1.302   1.653   6.365 -0.1650  0.1281 -0.1734
    1DIPC   PO410394   1.341   1.398   5.946 -0.1092 -0.0847 -0.1143
    1DIPC   GL110395   1.563   1.481   5.568  0.2223 -0.0804  0.3902
    1DIPC   GL210396   1.770   1.223   5.314  0.1956 -0.1208  0.0299
    1DIPC   C1A10397   1.681   1.637   5.024 -0.1656 -0.1287 -0.0015
    1DIPC   D2A10398   1.862   1.705   4.582  0.0998  0.0045 -0.1268
    1DIPC   D3A10399   1.785   1.308   4.472  0.0894 -0.0263 -0.2603
    1DIPC   C4A10400   1.944   1.066   4.746 -0.2329  0.1437  0.1668
    1DIPC   C1B10401   2.150   1.036   5.406 -0.0971  0.2029 -0.0819
    1DIPC   D2B10402   2.517   0.786   5.446  0.0727  0.0173  0.1382
    1DIPC   D3B10403   2.433   0.897   5.023  0.0682  0.2469 -0.3260
    1DIPC   C4B10404   2.594   0.707   4.668 -0.0728 -0.1421  0.0221
    1DIPC   NC310405  28.596   0.901   7.110 -0.0321  0.0737 -0.1179
    1DIPC   PO410406  28.940   1.216   6.861  0.2126  0.0996  0.0039
    1DIPC   GL110407  28.976   1.342   6.471 -0.3540 -0.1641 -0.0187
    1DIPC   GL210408  28.771   1.220   6.290  0.0144 -0.0454  0.2300
    1DIPC   C1A10409  29.219   1.517   6.098  0.0242  0.0397  0.0595
    1DIPC   D2A10410  29.102   1.848   5.780 -0.0583 -0.2207  0.3050
    1DIPC   D3A10411  29.313   2.040   5.447 -0.0527 -0.3150 -0.0474
    1DIPC   C4A10412  29.684   2.161   5.256  0.4054  0.2590  0.0748
    1DIPC   C1B10413  28.803   1.331   5.965  0.2766 -0.0424 -0.2990
    1DIPC   D2B10414  28.855   1.147   5.514 -0.1211  0.1482  0.0871
    1DIPC   D3B10415  28.818   1.181   5.073  0.0965  0.0512  0.3842
    1DIPC   C4B10416  28.695   1.540   4.898 -0.2331 -0.4403 -0.0308
    1DIPC   NC310417   8.288   7.770   7.247  0.0310 -0.1443 -0.0582
    1DIPC   PO410418   8.370   7.405   6.976 -0.1200  0.0292  0.1131
    1DIPC   GL110419   8.262   7.193   6.588  0.1310  0.3300 -0.0375
    1DIPC   GL210420   8.277   7.422   6.440 -0.0457  0.0600  0.2636
    1DIPC   C1A10421   8.156   6.983   6.199 -0.0664 -0.3132  0.2139
    1DIPC   D2A10422   8.432   7.097   5.820 -0.0796 -0.2450  0.2901
    1DIPC   D3A10423   8.660   6.740   5.636  0.1961  0.3084 -0.0244
    1DIPC   C4A10424   8.531   6.311   5.562  0.0401  0.4685 -0.2896
    1DIPC   C1B10425   8.020   7.488   6.095  0.0024 -0.2504  0.0919
    1DIPC   D2B10426   7.844   7.106   5.812  0.1924 -0.2109  0.0723
    1DIPC   D3B10427   8.027   7.163   5.421  0.2001 -0.0678 -0.0947
    1DIPC   C4B10428   8.063   6.914   4.929 -0.0018 -0.1597 -0.3846
    1DIPC   NC310429  15.942  28.066   7.273 -0.0864  0.3087  0.1712
    1DIPC   PO410430  16.162  28.452   7.240 -0.0822  0.2017 -0.0229
    1DIPC   GL110431  16.304  28.725   6.935 -0.1617 -0.0632 -0.2003
    1DIPC   GL210432  16.617  28.776   7.110 -0.0644  0.4347 -0.1327
    1DIPC   C1A10433  16.353  28.987   6.614 -0.1049  0.1276  0.2620
    1DIPC   D2A10434  16.627  29.333   6.393  0.4041  0.4416  0.1270
    1DIPC   D3A10435  16.279  29.322   6.057  0.0203  0.0153 -0.0411
    1DIPC   C4A10436  16.340  29.499   5.682  0.0540 -0.1412  0.0359
    1DIPC   C1B10437  16.806  28.792   6.669 -0.0572  0.0273  0.0047
    1DIPC   D2B10438  16.668  28.582   6.248 -0.2197  0.0998 -0.1017
    1DIPC   D3B10439  16.522  28.892   5.927  0.2186  0.1797  0.0432
    1DIPC   C4B10440  16.148  28.838   5.754  0.2922 -0.1910 -0.0559
    1DIPC   NC310441  18.936   5.009   6.995  0.2074  0.0247 -0.0480
    1DIPC   PO410442  19.478   4.970   6.930  0.6001 -0.2310  0.1362
    1DIPC   GL110443  19.446   5.107   6.565 -0.1129  0.0278  0.3401
    1DIPC   GL210444  19.798   5.189   6.361  0.0984  0.2279 -0.1063
    1DIPC   C1A10445  19.418   5.298   6.149  0.4893  0.0674 -0.0756
    1DIPC   D2A10446  19.447   5.736   5.975 -0.0901 -0.1034 -0.1060
    1DIPC   D3A10447  19.608   5.365   5.667  0.0589  0.0246 -0.0460
    1DIPC   C4A10448  19.873   5.504   5.502 -0.2284  0.0343 -0.2894
    1DIPC   C1B10449  19.891   5.347   6.045  0.0457  0.0874 -0.3570
    1DIPC   D2B10450  20.254   5.524   5.827 -0.0164 -0.0017 -0.2780
    1DIPC   D3B10451  20.524   5.796   6.002 -0.2263  0.1884  0.0257
    1DIPC   C4B10452  20.406   5.913   6.401  0.2214  0.1317 -0.0592
    1DIPC   NC310453  23.805  18.347   6.691  0.3424  0.1006 -0.0945
    1DIPC   PO410454  24.265  18.229   6.526  0.2158  0.0885 -0.3757
    1DIPC   GL110455  24.320  18.360   6.111 -0.1019 -0.2026  0.1399
    1DIPC   GL210456  24.603  18.367   5.970  0.0078 -0.0531 -0.3025
    1DIPC   C1A10457  24.212  18.672   5.670  0.1620  0.1409  0.2731
    1DIPC   D2A10458  24.074  18.787   5.269  0.4298  0.3081 -0.1174
    1DIPC   D3A10459  24.201  19.261   5.293 -0.0031  0.0875 -0.3091
    1DIPC   C4A10460  23.945  19.584   5.578  0.0523  0.0068  0.0129
    1DIPC   C1B10461  24.652  18.344   5.648  0.1013  0.1458 -0.0143
    1DIPC   D2B10462  24.603  18.036   5.405  0.0183  0.1365 -0.0257
    1DIPC   D3B10463  24.521  18.156   4.969  0.0579  0.2749 -0.2408
    1DIPC   C4B10464  24.229  18.470   4.833 -0.0108  0.1067 -0.0516
    1DIPC   NC310465   4.003  12.230   6.685  0.0430 -0.1331 -0.0054
    1DIPC   PO410466   3.949  12.571   6.510 -0.4253  0.2079  0.3356
    1DIPC   GL110467   3.903  12.625   6.063  0.2037 -0.0346  0.1173
    1DIPC   GL210468   3.677  12.616   5.840  0.0424 -0.0724 -0.2210
    1DIPC   C1A10469   4.240  12.579   5.704 -0.1112 -0.0210  0.2549
    1DIPC   D2A10470   4.612  12.775   5.822 -0.2885 -0.4301  0.0272
    1DIPC   D3A10471   4.913  12.669   5.553 -0.0727 -0.0938  0.1302
    1DIPC   C4A10472   5.285  12.794   5.588 -0.0347  0.1575 -0.1931
    1DIPC   C1B10473   3.371  12.510   5.551 -0.2329  0.1894 -0.1662
    1DIPC   D2B10474   3.351  12.243   5.143  0.1493 -0.0486 -0.2140
    1DIPC   D3B10475   3.376  12.508   4.792  0.1168  0.1265  0.0782
    1DIPC   C4B10476   3.589  12.997   5.009 -0.0172  0.0186 -0.1256
    1DIPC   NC310477  14.057  22.770   6.432 -0.2508 -0.2564  0.1509
    1DIPC   PO410478  14.026  23.180   6.335 -0.1122  0.0740  0.2843
    1DIPC   GL110479  14.152  23.565   6.155 -0.1352  0.1870  0.0305
    1DIPC   GL210480  14.196  23.923   6.286  0.0746 -0.1290  0.0651
    1DIPC   C1A10481  14.346  23.589   5.633 -0.3211  0.2498 -0.2310
    1DIPC   D2A10482  14.491  23.478   5.234 -0.0530 -0.0975  0.2626
    1DIPC   D3A10483  14.781  23.756   5.269 -0.1240 -0.2000 -0.1205
    1DIPC   C4A10484  15.169  23.596   5.222 -0.1637  0.0552  0.1240
    1DIPC   C1B10485  14.175  24.028   5.843 -0.0511  0.2088  0.0587
    1DIPC   D2B10486  13.869  24.084   5.503 -0.3614  0.0464  0.1890
    1DIPC   D3B10487  14.320  24.070   5.311 -0.1111  0.1841  0.4935
    1DIPC   C4B10488  14.543  24.519   5.099  0.0431  0.2283 -0.0827
    1DIPC   NC310489  24.862   1.155   6.488 -0.2421  0.0646  0.1226
    1DIPC   PO410490  24.977   1.332   6.065  0.3156  0.1263  0.3065
    1DIPC   GL110491  25.023   1.262   5.611 -0.0803 -0.3386  0.1993
    1DIPC   GL210492  24.764   1.088   5.607  0.0664  0.1586 -0.1303
    1DIPC   C1A10493  24.828   1.402   5.249 -0.1930 -0.3796  0.0631
    1DIPC   D2A10494  25.040   1.380   4.904 -0.2781  0.0889 -0.1978
    1DIPC   D3A10495  25.031   1.283   4.508 -0.0232  0.1199  0.0559
    1DIPC   C4A10496  24.588   1.205   4.396  0.0225  0.3991 -0.0036
    1DIPC   C1B10497  24.727   0.904   5.234 -0.1594  0.0780  0.0840
    1DIPC   D2B10498  24.877   0.832   4.867  0.1745 -0.0071  0.1307
    1DIPC   D3B10499  24.548   0.586   4.557  0.4549  0.2638 -0.7237
    1DIPC   C4B10500  24.291   0.279   4.740  0.0159 -0.0307 -0.0309
    1DIPC   NC310501   4.751  28.281   7.173 -0.0847 -0.1632  0.1410
    1DIPC   PO410502   4.501  28.338   6.922 -0.0835 -0.0541 -0.1392
    1DIPC   GL110503   4.732  28.479   6.403  0.3457  0.4847 -0.3672
    1DIPC   GL210504   4.840  28.268   6.253  0.2393  0.0711 -0.2425
    1DIPC   C1A10505   4.756  28.597   5.884  0.1523 -0.0988  0.2204
    1DIPC   D2A10506   4.893  28.740   5.491 -0.1583 -0.1967  0.2064
    1DIPC   D3A10507   4.901  29.122   5.691 -0.0177  0.2395  0.1769
    1DIPC   C4A10508   5.284  29.291   5.816  0.2201  0.0469  0.0085
    1DIPC   C1B10509   5.172  28.586   6.205 -0.1712  0.1713  0.0463
    1DIPC   D2B10510   5.450  28.906   6.191 -0.3506  0.1079  0.0313
    1DIPC   D3B10511   5.405  28.834   5.771 -0.0262  0.0259 -0.1234
    1DIPC   C4B10512   5.319  29.031   5.436 -0.0435 -0.0468  0.0201
    1DIPC   NC310513  17.841   3.314   6.699 -0.1467 -0.0916  0.1092
    1DIPC   PO410514  17.921   3.776   6.733 -0.1996  0.1065 -0.0758
    1DIPC   GL110515  17.986   3.672   6.345  0.1217 -0.0441  0.1381
    1DIPC   GL210516  17.791   3.429   6.203  0.0961  0.0848  0.0064
    1DIPC   C1A10517  17.928   3.846   5.950  0.1087  0.1511 -0.1138
    1DIPC   D2A10518  17.941   3.964   5.447  0.2040 -0.2239  0.3521
    1DIPC   D3A10519  17.554   3.819   5.630  0.2926  0.0697  0.1238
    1DIPC   C4A10520  17.389   3.787   6.065  0.0259  0.3790 -0.0316
    1DIPC   C1B10521  17.687   3.373   5.770  0.2121 -0.2852  0.0831
    1DIPC   D2B10522  17.933   3.453   5.497 -0.1220 -0.2344 -0.1182
    1DIPC   D3B10523  17.529   3.404   5.299  0.0808 -0.1729  0.0335
    1DIPC   C4B10524  17.144   3.541   5.604  0.0493 -0.0002 -0.4213
    1DIPC   NC310525  17.908   4.544   6.789  0.3572 -0.1832  0.2107
    1DIPC   PO410526  18.154   4.976   6.728  0.2483 -0.0661 -0.0799
    1DIPC   GL110527  18.124   4.922   6.297 -0.1221 -0.2296  0.0566
    1DIPC   GL210528  18.169   4.653   6.246  0.2073 -0.0593  0.0071
    1DIPC   C1A10529  18.013   5.097   5.813 -0.0810 -0.1040  0.0815
    1DIPC   D2A10530  17.937   5.269   5.461  0.0178  0.0411 -0.0255
    1DIPC   D3A10531  17.573   4.877   5.297  0.1551  0.1401  0.1052
    1DIPC   C4A10532  17.709   4.638   4.973  0.4007  0.0581  0.1251
    1DIPC   C1B10533  18.133   4.619   5.787  0.1036  0.0668  0.1530
    1DIPC   D2B10534  17.960   4.658   5.466  0.0503 -0.2863 -0.1311
    1DIPC   D3B10535  18.323   4.732   5.097 -0.0059  0.1656 -0.0006
    1DIPC   C4B10536  18.718   4.945   5.016  0.1277  0.0425 -0.1025
    1DIPC   NC310537   9.899   1.770   7.551 -0.0981 -0.2164  0.3191
    1DIPC   PO410538   9.931   1.582   7.161  0.4234 -0.2966 -0.0404
    1DIPC   GL110539   9.816   1.899   6.854  0.3255 -0.0619  0.0123
    1DIPC   GL210540  10.022   2.173   6.874  0.0772  0.1336  0.0170
    1DIPC   C1A10541   9.645   1.950   6.426 -0.1159  0.1767  0.0525
    1DIPC   D2A10542   9.550   1.574   6.187  0.1911 -0.0884 -0.2427
    1DIPC   D3A10543   9.215   1.305   6.171 -0.0109 -0.1691 -0.0254
    1DIPC   C4A10544   9.121   1.194   5.771  0.0994  0.0462  0.3070
    1DIPC   C1B10545  10.057   2.294   6.476  0.0728  0.1025 -0.2066
    1DIPC   D2B10546   9.924   2.333   6.098  0.1148 -0.2327 -0.1737
    1DIPC   D3B10547   9.576   2.017   5.812  0.0329  0.0728  0.0687
    1DIPC   C4B10548   9.188   2.133   5.668 -0.1908  0.0261  0.1215
    1DIPC   NC310549   2.828  17.095   5.984  0.5274 -0.1004 -0.1480
    1DIPC   PO410550   2.871  17.480   5.716  0.0060  0.4005 -0.0387
    1DIPC   GL110551   3.251  17.731   5.514 -0.2193  0.1624 -0.6604
    1DIPC   GL210552   3.549  17.715   5.473  0.1740 -0.2335  0.1113
    1DIPC   C1A10553   3.211  18.110   5.283 -0.2650 -0.1764 -0.2073
    1DIPC   D2A10554   3.203  18.260   4.873 -0.0498  0.0065 -0.1873
    1DIPC   D3A10555   3.067  17.861   4.587 -0.1197  0.2548  0.0007
    1DIPC   C4A10556   3.324  17.621   4.330  0.0891 -0.1795 -0.1715
    1DIPC   C1B10557   3.810  17.648   5.234  0.0470  0.0297 -0.1363
    1DIPC   D2B10558   4.037  17.485   4.920  0.2434 -0.0069 -0.0680
    1DIPC   D3B10559   3.772  17.594   4.590 -0.3380 -0.0763 -0.2674
    1DIPC   C4B10560   3.990  17.816   4.325 -0.2231  0.3289  0.1960
    1DIPC   NC310561   5.613  17.125   5.815  0.2400  0.0959  0.4206
    1DIPC   PO410562   5.817  17.464   5.880 -0.1012  0.2902 -0.2570
    1DIPC   GL110563   5.935  17.634   5.455  0.2365  0.2557  0.1071
    1DIPC   GL210564   5.744  17.939   5.386  0.1287 -0.1260  0.0625
    1DIPC   C1A10565   5.986  17.738   4.986  0.0926  0.0579  0.0695
    1DIPC   D2A10566   5.968  17.645   4.514 -0.0436 -0.2116 -0.1644
    1DIPC   D3A10567   5.660  17.381   4.410 -0.2779  0.0208  0.0665
    1DIPC   C4A10568   5.635  17.607   4.031 -0.1385 -0.0426 -0.0254
    1DIPC   C1B10569   5.496  17.974   4.936  0.0641  0.1224 -0.3745
    1DIPC   D2B10570   5.064  17.802   4.644 -0.3555 -0.0236 -0.1079
    1DIPC   D3B10571   4.765  18.106   4.845 -0.0329  0.0017 -0.1903
    1DIPC   C4B10572   4.615  18.540   4.646  0.0273  0.2371  0.2396
    1DIPC   NC310573  20.242  26.722   6.613  0.1660  0.1020 -0.0127
    1DIPC   PO410574  20.579  26.397   6.683 -0.1216 -0.2382 -0.3502
    1DIPC   GL110575  20.630  26.517   6.271  0.0238  0.1610 -0.0034
    1DIPC   GL210576  20.336  26.491   6.063  0.1534  0.1467 -0.1183
    1DIPC   C1A10577  20.783  26.547   5.864 -0.0495 -0.1470 -0.2575
    1DIPC   D2A10578  20.592  26.535   5.493  0.0688 -0.1892 -0.3928
    1DIPC   D3A10579  20.482  26.918   5.349 -0.0119 -0.0615  0.2415
    1DIPC   C4A10580  20.158  26.999   5.175 -0.1279 -0.0048  0.3277
    1DIPC   C1B10581  20.325  26.154   5.711  0.0850  0.2614  0.2672
    1DIPC   D2B10582  20.425  26.084   5.263 -0.1737  0.1188 -0.1833
    1DIPC   D3B10583  20.236  26.102   4.805  0.2866  0.2491  0.2299
    1DIPC   C4B10584  20.251  26.204   4.452  0.3861 -0.0442  0.0069
    1DIPC   NC310585   2.601  21.062   5.971  0.2573 -0.1921 -0.1278
    1DIPC   PO410586   2.994  21.210   5.794 -0.1536 -0.0668 -0.1534
    1DIPC   GL110587   2.957  21.213   5.376 -0.0735 -0.1867  0.2172
    1DIPC   GL210588   2.630  21.102   5.377  0.0529 -0.2037  0.2949
    1DIPC   C1A10589   2.995  21.055   4.999  0.2529  0.1405  0.1833
    1DIPC   D2A10590   3.021  21.031   4.557 -0.0913 -0.1233  0.2233
    1DIPC   D3A10591   2.655  20.996   4.266  0.0120 -0.1236 -0.1626
    1DIPC   C4A10592   2.287  20.876   4.453  0.0194  0.2434  0.0783
    1DIPC   C1B10593   2.474  20.936   5.012 -0.0060  0.1030  0.3235
    1DIPC   D2B10594   2.067  20.814   5.075  0.1600  0.2159 -0.1591
    1DIPC   D3B10595   1.865  20.797   4.628  0.2485 -0.1765  0.0300
    1DIPC   C4B10596   1.563  20.543   4.370  0.1561  0.0924 -0.2419
    1DIPC   NC310597  12.173  28.387   8.005  0.1002  0.1180  0.2125
    1DIPC   PO410598  12.652  28.193   8.160 -0.0943  0.3872 -0.3126
    1DIPC   GL110599  12.566  28.282   7.723  0.2496  0.1222  0.0765
    1DIPC   GL210600  12.795  28.150   7.591  0.0200  0.2402  0.0090
    1DIPC   C1A10601  12.494  28.347   7.306  0.2546  0.0556  0.2234
    1DIPC   D2A10602  12.454  28.215   6.905 -0.0373  0.0485 -0.2420
    1DIPC   D3A10603  12.106  28.325   6.575  0.0458 -0.2631 -0.0962
    1DIPC   C4A10604  12.000  28.082   6.238 -0.1806  0.2181 -0.1092
    1DIPC   C1B10605  12.862  28.061   7.225 -0.0244  0.1558  0.0887
    1DIPC   D2B10606  13.114  27.888   6.850 -0.0758 -0.1258 -0.1863
    1DIPC   D3B10607  12.859  27.730   6.618  0.0863 -0.0301 -0.0565
    1DIPC   C4B10608  12.574  27.932   6.337 -0.0262  0.4499  0.3565
    1DIPC   NC310609  27.439   5.835   6.748 -0.4410  0.0270  0.3144
    1DIPC   PO410610  27.561   6.091   6.361  0.0663 -0.2455  0.1346
    1DIPC   GL110611  27.514   5.929   5.968  0.0111 -0.1265 -0.0267
    1DIPC   GL210612  27.310   5.642   5.856  0.1359  0.1202  0.0551
    1DIPC   C1A10613  27.683   5.893   5.487  0.2048  0.2362  0.0229
    1DIPC   D2A10614  27.680   5.596   5.187 -0.0642 -0.0916  0.0612
    1DIPC   D3A10615  27.936   5.480   4.959 -0.1930  0.3480 -0.0529
    1DIPC   C4A10616  27.892   5.664   4.546 -0.1255  0.1178 -0.5522
    1DIPC   C1B10617  27.196   5.602   5.386  0.0275  0.1267  0.1089
    1DIPC   D2B10618  27.008   5.521   5.031 -0.4007 -0.1714  0.2674
    1DIPC   D3B10619  26.858   5.624   4.582 -0.3409 -0.1840 -0.1568
    1DIPC   C4B10620  26.686   5.921   4.365  0.0490  0.2301  0.0281
    1DIPC   NC310621   0.526   4.547   5.892 -0.2470 -0.1021  0.0436
    1DIPC   PO410622   0.686   4.931   5.816 -0.1727 -0.0061  0.4949
    1DIPC   GL110623   0.568   4.837   5.465  0.0438  0.0680 -0.5630
    1DIPC   GL210624   0.442   5.124   5.237  0.0311 -0.1604 -0.0712
    1DIPC   C1A10625   0.782   4.773   5.166 -0.0642  0.1987  0.2868
    1DIPC   D2A10626   0.593   4.523   4.773  0.0281  0.0051 -0.1771
    1DIPC   D3A10627   0.805   4.464   4.457  0.3090 -0.0880 -0.0222
    1DIPC   C4A10628   1.005   4.039   4.344  0.0623  0.1297  0.3189
    1DIPC   C1B10629   0.464   5.086   4.829 -0.0044  0.0257 -0.0224
    1DIPC   D2B10630   0.504   4.996   4.375  0.1680  0.0648 -0.1031
    1DIPC   D3B10631   0.310   5.383   4.376 -0.2783 -0.0428  0.0733
    1DIPC   C4B10632   0.464   5.776   4.212 -0.3569 -0.2161 -0.0109
    1DIPC   NC310633   8.137  22.411   5.971  0.3303 -0.1530 -0.0435
    1DIPC   PO410634   7.927  22.600   5.819 -0.1348 -0.2392  0.1874
    1DIPC   GL110635   7.981  22.750   5.459 -0.1861 -0.4169 -0.2403
    1DIPC   GL210636   8.205  22.936   5.318 -0.1071  0.0541 -0.1007
    1DIPC   C1A10637   7.972  22.662   4.954 -0.2023 -0.0330  0.1479
    1DIPC   D2A10638   7.651  22.543   4.865 -0.2540 -0.2707 -0.1791
    1DIPC   D3A10639   7.782  22.751   4.483  0.1907 -0.0043 -0.0833
    1DIPC   C4A10640   8.112  23.043   4.440 -0.1963  0.1423  0.0133
    1DIPC   C1B10641   8.354  23.299   5.078 -0.0830 -0.0098 -0.2476
    1DIPC   D2B10642   8.682  23.212   4.942 -0.0448  0.2168 -0.0108
    1DIPC   D3B10643   9.125  23.047   4.864  0.0968 -0.2600 -0.0219
    1DIPC   C4B10644   9.301  22.711   4.868 -0.1316  0.0629 -0.2091
    1DIPC   NC310645  12.699   2.056   8.022  0.1579 -0.0427  0.0968
    1DIPC   PO410646  12.628   1.699   7.576  0.1138 -0.1187  0.1382
    1DIPC   GL110647  12.395   1.953   7.139 -0.3227  0.1126 -0.1551
    1DIPC   GL210648  12.448   2.367   7.045 -0.0143 -0.1161 -0.0685
    1DIPC   C1A10649  12.267   1.876   6.752  0.0591  0.2982  0.5084
    1DIPC   D2A10650  12.358   2.007   6.246  0.0313 -0.0432  0.0374
    1DIPC   D3A10651  12.078   1.597   6.339  0.2835 -0.3161  0.1013
    1DIPC   C4A10652  11.921   1.299   6.042 -0.2484 -0.1155 -0.0367
    1DIPC   C1B10653  12.339   2.363   6.601  0.1139  0.1533 -0.1652
    1DIPC   D2B10654  12.795   2.308   6.320 -0.1486 -0.4336  0.3273
    1DIPC   D3B10655  13.113   2.519   6.501 -0.3311 -0.3320  0.1267
    1DIPC   C4B10656  13.571   2.539   6.475 -0.0514  0.2436  0.1679
    1DIPC   NC310657   4.957   9.110   6.142 -0.2511  0.0276  0.1000
    1DIPC   PO410658   5.391   9.250   6.158 -0.1423 -0.0254 -0.3212
    1DIPC   GL110659   5.174   9.492   5.880  0.2102 -0.1261 -0.0536
    1DIPC   GL210660   5.325   9.869   5.839 -0.0963 -0.3061  0.2047
    1DIPC   C1A10661   5.088   9.380   5.493 -0.1225 -0.4514 -0.1063
    1DIPC   D2A10662   5.337   9.412   5.116  0.2107 -0.1967 -0.0066
    1DIPC   D3A10663   5.075   9.666   4.815 -0.0365  0.0261 -0.0853
    1DIPC   C4A10664   4.661   9.693   4.989  0.0247  0.0759 -0.0124
    1DIPC   C1B10665   5.399   9.806   5.382  0.0614 -0.0177 -0.1978
    1DIPC   D2B10666   5.499   9.861   4.952  0.0429  0.2253  0.0878
    1DIPC   D3B10667   5.763  10.193   4.890 -0.0661 -0.0125 -0.2019
    1DIPC   C4B10668   5.937  10.438   4.527  0.2993  0.0765 -0.2352
    1DIPC   NC310669  15.028   3.077   7.518 -0.0085 -0.0044  0.0088
    1DIPC   PO410670  15.059   2.865   7.103 -0.0169  0.2698  0.0571
    1DIPC   GL110671  15.186   2.789   6.639 -0.2171 -0.2152 -0.1403
    1DIPC   GL210672  14.974   2.945   6.479 -0.0787  0.0095 -0.2107
    1DIPC   C1A10673  15.348   2.633   6.205 -0.2208 -0.3301  0.1450
    1DIPC   D2A10674  15.332   2.291   5.979 -0.0215 -0.0202  0.0936
    1DIPC   D3A10675  15.191   2.185   5.524 -0.1296  0.1829  0.0420
    1DIPC   C4A10676  15.298   2.426   5.209 -0.1321  0.1187 -0.0198
    1DIPC   C1B10677  14.953   2.892   6.093 -0.0102  0.0607 -0.1664
    1DIPC   D2B10678  15.174   2.801   5.749  0.0640 -0.1609  0.1853
    1DIPC   D3B10679  15.563   2.691   5.643 -0.3709  0.1960 -0.0425
    1DIPC   C4B10680  15.998   2.943   5.675 -0.0380  0.3725  0.0152
    1DIPC   NC310681  24.653  14.696   6.111 -0.1842 -0.1891 -0.0491
    1DIPC   PO410682  24.459  14.992   5.725  0.0369  0.1381 -0.0792
    1DIPC   GL110683  24.394  14.901   5.307  0.0589  0.0655  0.0723
    1DIPC   GL210684  24.510  15.173   5.046 -0.3022  0.1676 -0.0115
    1DIPC   C1A10685  24.355  14.631   5.024  0.2078 -0.4021 -0.0233
    1DIPC   D2A10686  24.535  14.418   4.690  0.0036 -0.1221  0.2189
    1DIPC   D3A10687  24.696  14.747   4.445  0.1406  0.0870 -0.4979
    1DIPC   C4A10688  24.867  14.992   4.746  0.1632  0.1869  0.0282
    1DIPC   C1B10689  24.460  15.315   4.564 -0.3333  0.2025  0.0110
    1DIPC   D2B10690  24.268  15.428   4.246 -0.0772  0.1972 -0.0676
    1DIPC   D3B10691  23.774  15.495   4.251 -0.0838 -0.0580 -0.3271
    1DIPC   C4B10692  23.487  15.893   4.184 -0.3003 -0.0504 -0.0629
    1DIPC   NC310693   1.413   0.994   6.361 -0.0152  0.2447 -0.0516
    1DIPC   PO410694   1.005   1.249   6.331 -0.1548  0.0233  0.1338
    1DIPC   GL110695   1.115   0.986   5.917  0.4795 -0.2497  0.1200
    1DIPC   GL210696   1.177   0.601   5.777  0.4509  0.1088  0.0647
    1DIPC   C1A10697   0.940   0.968   5.506 -0.1265 -0.1981  0.0296
    1DIPC   D2A10698   0.996   0.975   5.141  0.2357 -0.2885 -0.0922
    1DIPC   D3A10699   0.591   0.804   5.132 -0.0077  0.1140 -0.1285
    1DIPC   C4A10700   0.354   0.652   4.739 -0.0677  0.1058  0.0114
    1DIPC   C1B10701   1.164   0.496   5.338 -0.0855 -0.0142 -0.3492
    1DIPC   D2B10702   0.969   0.529   4.912  0.0632  0.2742 -0.0102
    1DIPC   D3B10703   0.638   0.175   4.748  0.0582 -0.1342 -0.2229
    1DIPC   C4B10704   0.754  -0.183   4.565  0.3423 -0.1269 -0.0273
    1DIPC   NC310705  10.959   1.051   7.354  0.0498  0.2423  0.0912
    1DIPC   PO410706  11.387   0.962   7.319 -0.0161 -0.0047 -0.0118
    1DIPC   GL110707  11.287   0.812   6.902 -0.2288  0.0289  0.2302
    1DIPC   GL210708  11.401   0.499   6.900  0.1232  0.2975  0.0271
    1DIPC   C1A10709  11.103   0.829   6.504 -0.3172 -0.0116 -0.0160
    1DIPC   D2A10710  11.105   1.253   6.311  0.2158  0.3052 -0.0730
    1DIPC   D3A10711  10.712   1.217   6.547  0.0963 -0.3607 -0.2364
    1DIPC   C4A10712  10.297   1.198   6.343 -0.2282  0.0599  0.0394
    1DIPC   C1B10713  11.464   0.489   6.469  0.0917 -0.4386 -0.2028
    1DIPC   D2B10714  11.598   0.283   6.209  0.2408  0.2946  0.0822
    1DIPC   D3B10715  11.838   0.621   6.220  0.0038  0.2974  0.2249
    1DIPC   C4B10716  12.192   0.858   6.037  0.0488 -0.1055 -0.0411
    1DIPC   NC310717  20.391  25.349   6.619  0.3393  0.2184  0.1498
    1DIPC   PO410718  20.633  24.881   6.717  0.1800  0.0979 -0.1189
    1DIPC   GL110719  20.706  24.790   6.410 -0.2845 -0.2496 -0.3398
    1DIPC   GL210720  20.498  24.594   6.158  0.0895  0.1032 -0.0189
    1DIPC   C1A10721  20.942  24.888   6.067 -0.0031  0.4057 -0.1427
    1DIPC   D2A10722  21.093  25.055   5.612 -0.0836 -0.1155 -0.0042
    1DIPC   D3A10723  20.846  24.778   5.226 -0.1372 -0.2695  0.1683
    1DIPC   C4A10724  20.303  24.656   5.292  0.0308 -0.1644 -0.0211
    1DIPC   C1B10725  20.428  25.065   6.015  0.0786 -0.0983  0.5013
    1DIPC   D2B10726  20.529  25.108   5.514  0.0149  0.3305  0.0919
    1DIPC   D3B10727  20.748  25.412   5.600 -0.0049 -0.1184 -0.0402
    1DIPC   C4B10728  20.653  25.566   5.984  0.1722 -0.1367  0.0632
    1DIPC   NC310729  18.165  21.235   6.843 -0.4240  0.1509 -0.2337
    1DIPC   PO410730  17.787  21.277   6.901 -0.3676 -0.1017 -0.0476
    1DIPC   GL110731  17.713  21.017   6.473  0.0639  0.1286 -0.0894
    1DIPC   GL210732  17.489  21.202   6.151  0.0186 -0.1197  0.1857
    1DIPC   C1A10733  17.568  20.680   6.103  0.3457 -0.2095  0.1970
    1DIPC   D2A10734  17.241  20.322   5.950 -0.0522  0.0024  0.3577
    1DIPC   D3A10735  17.298  20.285   5.492 -0.0512  0.0038  0.0010
    1DIPC   C4A10736  17.465  19.907   5.417  0.0911  0.1042 -0.0070
    1DIPC   C1B10737  17.413  21.124   5.749  0.1296  0.0690 -0.0497
    1DIPC   D2B10738  17.365  20.794   5.629 -0.1346 -0.2901  0.0262
    1DIPC   D3B10739  16.988  20.748   5.506 -0.2029 -0.1854 -0.0283
    1DIPC   C4B10740  16.829  20.490   5.788 -0.0441  0.1168 -0.1497
    1DIPC   NC310741  23.433  13.390   5.977 -0.1541  0.0326  0.2480
    1DIPC   PO410742  23.380  13.071   5.835 -0.0730 -0.2724  0.1218
    1DIPC   GL110743  23.392  12.772   5.457  0.2567  0.0700  0.1435
    1DIPC   GL210744  23.413  12.436   5.551  0.1911  0.0434 -0.1059
    1DIPC   C1A10745  23.267  12.874   4.961 -0.1514  0.0387 -0.1416
    1DIPC   D2A10746  23.418  12.894   4.557  0.1196  0.1767  0.0290
    1DIPC   D3A10747  23.883  12.886   4.312  0.1752  0.2019 -0.2161
    1DIPC   C4A10748  24.032  13.242   4.172  0.4544 -0.0072  0.1554
    1DIPC   C1B10749  23.102  12.150   5.510 -0.1224  0.3311  0.0736
    1DIPC   D2B10750  23.053  11.849   5.272 -0.1395 -0.0245 -0.0385
    1DIPC   D3B10751  22.749  12.142   5.133 -0.0553 -0.2379 -0.2190
    1DIPC   C4B10752  22.756  12.390   4.752  0.2216  0.1623 -0.2287
    1DIPC   NC310753  11.645  11.980   7.062  0.1416  0.1064 -0.1120
    1DIPC   PO410754  11.477  11.636   6.978  0.2073  0.0354  0.2718
    1DIPC   GL110755  11.393  11.373   6.670 -0.0323  0.0075  0.1293
    1DIPC   GL210756  11.135  11.501   6.483 -0.3044 -0.0862  0.3026
    1DIPC   C1A10757  11.491  11.137   6.318 -0.2184  0.2709  0.1672
    1DIPC   D2A10758  11.525  11.192   5.863  0.1063  0.1741  0.0107
    1DIPC   D3A10759  11.220  10.889   5.720 -0.1525 -0.1104  0.0403
    1DIPC   C4A10760  11.241  10.755   5.269 -0.2739 -0.2083 -0.2065
    1DIPC   C1B10761  11.417  11.615   6.216 -0.2629 -0.2224  0.1683
    1DIPC   D2B10762  11.607  11.981   6.064  0.1835 -0.1774 -0.0332
    1DIPC   D3B10763  11.165  12.121   5.988  0.0773 -0.2419 -0.0619
    1DIPC   C4B10764  10.954  12.419   6.265 -0.0381 -0.2214 -0.1847
    1DIPC   NC310765  10.269   3.985   7.481  0.2639 -0.4712 -0.1106
    1DIPC   PO410766  10.011   3.684   7.342 -0.0160  0.0485  0.0563
    1DIPC   GL110767  10.044   3.802   6.964  0.0604  0.1907 -0.0424
    1DIPC   GL210768  10.044   4.167   6.884 -0.3415  0.2576 -0.1119
    1DIPC   C1A10769   9.870   3.842   6.522 -0.0719  0.0677  0.0131
    1DIPC   D2A10770   9.985   3.856   6.189  0.1694 -0.2921 -0.0786
    1DIPC   D3A10771  10.002   3.570   5.830 -0.2719  0.0516  0.1670
    1DIPC   C4A10772  10.103   3.728   5.368 -0.0532  0.1435 -0.1586
    1DIPC   C1B10773  10.495   3.963   6.729 -0.2506 -0.0777  0.2160
    1DIPC   D2B10774  10.838   3.944   6.369  0.2460 -0.1154 -0.3114
    1DIPC   D3B10775  10.517   3.652   6.323 -0.4388 -0.0754  0.1206
    1DIPC   C4B10776  10.225   3.454   6.463  0.2200  0.2564 -0.0810
    1DIPC   NC310777   5.081  16.676   5.778 -0.0481  0.1061  0.2806
    1DIPC   PO410778   4.646  16.916   5.655 -0.0006  0.0557 -0.1741
    1DIPC   GL110779   4.499  16.730   5.266  0.2550  0.0655 -0.1553
    1DIPC   GL210780   4.760  16.559   5.293 -0.1689 -0.0080 -0.1868
    1DIPC   C1A10781   4.259  16.348   4.995  0.1037  0.1103  0.1350
    1DIPC   D2A10782   3.861  16.128   4.948 -0.0749  0.2272  0.3251
    1DIPC   D3A10783   4.166  16.006   4.578 -0.0386  0.0244  0.2881
    1DIPC   C4A10784   4.176  15.668   4.275 -0.1699 -0.1276  0.1380
    1DIPC   C1B10785   4.827  16.809   4.830  0.0843 -0.1317 -0.0116
    1DIPC   D2B10786   4.822  16.898   4.309 -0.0086  0.0761  0.1019
    1DIPC   D3B10787   4.679  16.614   3.976 -0.0794 -0.1195  0.0704
    1DIPC   C4B10788   4.186  16.610   3.941  0.0010 -0.0628  0.1959
    1DIPC   NC310789   4.968  10.231   6.885 -0.0552 -0.1638  0.3413
    1DIPC   PO410790   4.953  10.507   6.533 -0.0580  0.1780  0.0442
    1DIPC   GL110791   4.785  10.564   6.203  0.3611  0.1204  0.3470
    1DIPC   GL210792   5.048  10.843   6.115  0.1393  0.0419 -0.1007
    1DIPC   C1A10793   4.638  10.739   5.838 -0.1307  0.0443  0.2748
    1DIPC   D2A10794   4.785  11.019   5.519  0.1521  0.0824 -0.1745
    1DIPC   D3A10795   4.403  10.955   5.418 -0.0181 -0.1334  0.0989
    1DIPC   C4A10796   4.110  10.729   5.169 -0.3087 -0.1466  0.1520
    1DIPC   C1B10797   5.168  10.716   5.691 -0.0600  0.3193  0.1851
    1DIPC   D2B10798   5.239  10.956   5.330  0.3812 -0.1010 -0.1722
    1DIPC   D3B10799   5.528  11.274   5.363  0.2553  0.1025 -0.2312
    1DIPC   C4B10800   5.471  11.667   5.248  0.2058  0.1581 -0.0588
    1DIPC   NC310801   5.716  14.751   6.267  0.0003  0.0285 -0.2917
    1DIPC   PO410802   5.677  14.387   6.038  0.0770  0.2726 -0.0844
    1DIPC   GL110803   5.755  14.396   5.668 -0.2289 -0.2568 -0.0601
    1DIPC   GL210804   5.834  14.125   5.590  0.2895 -0.0225 -0.2430
    1DIPC   C1A10805   5.749  14.520   5.291 -0.2096 -0.1930  0.0872
    1DIPC   D2A10806   5.642  14.560   4.749  0.1479  0.2689 -0.0842
    1DIPC   D3A10807   5.288  14.444   4.599  0.4077 -0.2185 -0.2047
    1DIPC   C4A10808   5.268  14.358   4.219 -0.3464 -0.3185  0.0984
    1DIPC   C1B10809   6.112  13.768   5.640 -0.0929 -0.1045  0.1899
    1DIPC   D2B10810   6.322  13.500   5.946 -0.1406 -0.1592  0.0152
    1DIPC   D3B10811   6.649  13.595   5.847 -0.0418 -0.1718  0.1590
    1DIPC   C4B10812   6.678  14.091   5.940  0.0711  0.3614 -0.1347
    1DIPC   NC310813  26.631   4.921   5.471  0.2964 -0.1549 -0.0924
    1DIPC   PO410814  26.315   5.175   5.715  0.1650 -0.3432  0.1413
    1DIPC   GL110815  26.093   5.148   5.342 -0.0472 -0.1542  0.1077
    1DIPC   GL210816  26.100   4.854   5.265 -0.4659  0.2396  0.2227
    1DIPC   C1A10817  26.042   5.471   5.075  0.0513  0.0014 -0.3188
    1DIPC   D2A10818  25.981   5.911   5.107  0.1755  0.0958 -0.2829
    1DIPC   D3A10819  26.248   6.104   4.748  0.0583  0.0906  0.1365
    1DIPC   C4A10820  26.057   6.441   4.488  0.2051  0.3402 -0.1792
    1DIPC   C1B10821  26.330   4.950   4.871  0.2588  0.1175 -0.1173
    1DIPC   D2B10822  26.266   4.876   4.425  0.0725 -0.0364  0.1927
    1DIPC   D3B10823  26.199   5.184   4.269  0.0301  0.1832 -0.2633
    1DIPC   C4B10824  25.880   5.099   3.988 -0.2116  0.0069  0.0035
    1DIPC   NC310825   4.759   2.824   6.417  0.1559  0.1618  0.1302
    1DIPC   PO410826   4.736   2.302   6.292 -0.1714 -0.0761 -0.0804
    1DIPC   GL110827   4.631   2.497   5.926 -0.0876 -0.1449  0.1603
    1DIPC   GL210828   4.431   2.785   5.994  0.2470 -0.0461 -0.0640
    1DIPC   C1A10829   4.815   2.774   5.552  0.4155 -0.0620  0.1488
    1DIPC   D2A10830   4.706   3.055   5.263 -0.2621 -0.3710  0.0303
    1DIPC   D3A10831   4.984   2.934   4.892 -0.4395  0.0686 -0.2940
    1DIPC   C4A10832   4.933   3.230   4.594  0.2334  0.2783  0.0320
    1DIPC   C1B10833   4.277   2.710   5.522 -0.1350 -0.0974 -0.0712
    1DIPC   D2B10834   4.095   2.362   5.246 -0.0600  0.0169 -0.0357
    1DIPC   D3B10835   4.453   2.087   5.082 -0.1225 -0.3972 -0.0871
    1DIPC   C4B10836   4.749   1.776   5.259 -0.0610 -0.0713 -0.0675
    1DIPC   NC310837  12.148  26.369   7.423 -0.1687  0.0992  0.1977
    1DIPC   PO410838  12.127  26.801   7.262 -0.2316  0.1507 -0.1344
    1DIPC   GL110839  12.375  26.671   6.876 -0.0213 -0.1222 -0.0739
    1DIPC   GL210840  12.098  26.607   6.672  0.1586  0.1024  0.3684
    1DIPC   C1A10841  12.605  26.838   6.604 -0.0885  0.0424 -0.4481
    1DIPC   D2A10842  12.742  27.219   6.457 -0.1376 -0.0825  0.1289
    1DIPC   D3A10843  12.689  27.369   6.098 -0.2885  0.0847  0.2149
    1DIPC   C4A10844  12.255  27.627   6.031  0.1845 -0.0058 -0.2493
    1DIPC   C1B10845  11.943  26.816   6.324  0.3109  0.0509  0.1106
    1DIPC   D2B10846  11.739  26.947   5.863 -0.2052  0.0486  0.2607
    1DIPC   D3B10847  11.481  26.943   6.306 -0.0811 -0.0503 -0.1836
    1DIPC   C4B10848  11.554  26.477   6.530  0.3468 -0.1935  0.0592
    1DIPC   NC310849  12.588   0.586   7.658  0.0275  0.0223  0.2152
    1DIPC   PO410850  12.454   0.966   7.359 -0.3292  0.1667  0.0402
    1DIPC   GL110851  12.276   0.622   7.241  0.2490  0.1571  0.1786
    1DIPC   GL210852  12.348   0.711   6.892 -0.1447  0.2450 -0.0271
    1DIPC   C1A10853  12.084   0.310   7.057 -0.0795  0.0498  0.0840
    1DIPC   D2A10854  11.826   0.155   6.834 -0.2946  0.0790  0.1119
    1DIPC   D3A10855  11.857  -0.249   6.848  0.1479  0.2754 -0.0045
    1DIPC   C4A10856  12.110  -0.465   6.510  0.0677  0.4181 -0.1565
    1DIPC   C1B10857  12.553   1.033   6.691 -0.2268  0.0246  0.0244
    1DIPC   D2B10858  12.599   0.693   6.378  0.2851 -0.0041  0.1695
    1DIPC   D3B10859  12.665   0.510   6.035  0.0593  0.2178 -0.4679
    1DIPC   C4B10860  12.974   0.588   5.625 -0.0129 -0.0784 -0.0283
    1DIPC   NC310861  22.861   7.326   6.609  0.0689 -0.0486  0.2622
    1DIPC   PO410862  22.486   7.119   6.650  0.2788 -0.0971 -0.0579
    1DIPC   GL110863  22.404   7.137   6.296  0.0499 -0.1466  0.0847
    1DIPC   GL210864  22.475   7.431   6.186 -0.1383  0.0501  0.1548
    1DIPC   C1A10865  22.250   7.062   5.894 -0.2819 -0.1864  0.0478
    1DIPC   D2A10866  22.358   7.226   5.444  0.1610  0.2138  0.3022
    1DIPC   D3A10867  22.001   7.366   5.234  0.1867 -0.1157  0.1204
    1DIPC   C4A10868  21.874   7.363   4.861  0.1244 -0.2611  0.0344
    1DIPC   C1B10869  22.129   7.651   6.278  0.0010  0.0611  0.0900
    1DIPC   D2B10870  21.976   7.997   6.087 -0.0387 -0.0131  0.0196
    1DIPC   D3B10871  22.284   8.286   5.911  0.1534 -0.2374 -0.1182
    1DIPC   C4B10872  22.729   8.126   5.780 -0.0025 -0.1077  0.1664
    1DIPC   NC310873   3.030   9.257   6.570  0.0259  0.0784 -0.1472
    1DIPC   PO410874   3.202   9.461   6.162  0.1963 -0.1227 -0.2209
    1DIPC   GL110875   3.368   9.707   5.729  0.2943 -0.0717 -0.0060
    1DIPC   GL210876   3.587   9.601   5.403  0.2653  0.1231 -0.1383
    1DIPC   C1A10877   3.176   9.828   5.270 -0.1215  0.0303 -0.1442
    1DIPC   D2A10878   3.196  10.159   5.058  0.1237  0.1620 -0.0344
    1DIPC   D3A10879   3.333  10.145   4.597 -0.3945 -0.2609  0.0241
    1DIPC   C4A10880   3.196   9.794   4.360  0.0241 -0.0440  0.0356
    1DIPC   C1B10881   3.652   9.951   5.094 -0.2770  0.0999  0.1579
    1DIPC   D2B10882   3.669  10.337   5.006  0.1237 -0.0168  0.3235
    1DIPC   D3B10883   3.903  10.268   4.584  0.0946 -0.0241 -0.0849
    1DIPC   C4B10884   4.124   9.938   4.650  0.1869 -0.0286 -0.1952
    1DIPC   NC310885   0.335   5.471   6.411  0.3308 -0.0162 -0.0019
    1DIPC   PO410886   0.069   5.377   6.130  0.1898  0.0257  0.1706
    1DIPC   GL110887  -0.129   5.559   5.750 -0.2644  0.0697  0.2676
    1DIPC   GL210888   0.067   5.521   5.372 -0.0377 -0.2468 -0.2600
    1DIPC   C1A10889  -0.405   5.721   5.434 -0.0712 -0.1050 -0.1525
    1DIPC   D2A10890  -0.862   5.502   5.302 -0.1448  0.0179 -0.1886
    1DIPC   D3A10891  -1.283   5.478   5.517  0.0445 -0.0985  0.0103
    1DIPC   C4A10892  -1.714   5.309   5.646  0.1625 -0.2698 -0.4531
    1DIPC   C1B10893   0.175   5.480   5.007 -0.0390 -0.2029  0.1971
    1DIPC   D2B10894  -0.000   5.159   4.706  0.2579  0.2925 -0.0119
    1DIPC   D3B10895  -0.216   5.339   4.318  0.0319 -0.0499  0.1406
    1DIPC   C4B10896  -0.506   5.673   4.263 -0.0077 -0.0657  0.1577
    1DIPC   NC310897  28.267  20.505   6.049 -0.1889  0.0641 -0.1074
    1DIPC   PO410898  28.315  20.928   5.861 -0.0576 -0.0785  0.1537
    1DIPC   GL110899  28.191  20.874   5.466 -0.1492 -0.0005 -0.0636
    1DIPC   GL210900  27.868  20.733   5.624 -0.0358  0.3007 -0.2368
    1DIPC   C1A10901  28.042  21.032   5.076 -0.4234 -0.3332 -0.1610
    1DIPC   D2A10902  27.751  21.341   4.943  0.1308  0.2150  0.1259
    1DIPC   D3A10903  27.428  21.088   4.546 -0.2526  0.0360 -0.0334
    1DIPC   C4A10904  27.252  20.709   4.654  0.2728 -0.1074  0.1783
    1DIPC   C1B10905  27.870  20.556   5.177  0.1927 -0.5269  0.0645
    1DIPC   D2B10906  28.154  20.596   4.845  0.4424 -0.0479  0.2870
    1DIPC   D3B10907  28.340  20.877   4.549  0.1621 -0.1050 -0.3407
    1DIPC   C4B10908  28.420  20.552   4.110  0.3546  0.0590  0.1589
    1DIPC   NC310909   3.319   7.984   6.504  0.0911  0.0496  0.0502
    1DIPC   PO410910   3.236   8.368   6.304 -0.2994  0.1537  0.0234
    1DIPC   GL110911   3.265   8.441   6.009  0.0429  0.0911 -0.2000
    1DIPC   GL210912   3.028   8.361   5.723 -0.1234 -0.0592 -0.0322
    1DIPC   C1A10913   3.335   8.781   5.644  0.2308 -0.0958  0.0010
    1DIPC   D2A10914   3.353   9.147   5.368  0.1351 -0.1142 -0.0924
    1DIPC   D3A10915   3.085   9.311   5.024 -0.1829  0.1032 -0.0969
    1DIPC   C4A10916   2.893   9.074   4.656 -0.0114  0.0722 -0.0040
    1DIPC   C1B10917   3.115   8.342   5.460  0.0997 -0.0606  0.0524
    1DIPC   D2B10918   3.351   8.646   5.193  0.3823 -0.0925 -0.3276
    1DIPC   D3B10919   2.856   8.707   5.060 -0.1181 -0.2957 -0.3037
    1DIPC   C4B10920   2.675   8.588   4.567 -0.2162 -0.2428  0.2980
    1DIPC   NC310921   7.465   8.721   6.551 -0.1125 -0.1042  0.1749
    1DIPC   PO410922   7.692   9.134   6.500 -0.2801 -0.3172 -0.1225
    1DIPC   GL110923   8.052   9.059   6.395  0.0029  0.0791 -0.0184
    1DIPC   GL210924   8.270   9.261   6.134 -0.1173 -0.0221  0.0286
    1DIPC   C1A10925   8.225   8.748   6.142 -0.0359  0.0473 -0.2032
    1DIPC   D2A10926   8.257   8.902   5.739  0.4517 -0.2670 -0.3263
    1DIPC   D3A10927   7.969   8.883   5.385  0.4889  0.1833 -0.1029
    1DIPC   C4A10928   7.899   9.206   5.134 -0.2942 -0.3054 -0.0911
    1DIPC   C1B10929   8.426   9.655   5.906  0.1716 -0.0316 -0.1951
    1DIPC   D2B10930   8.601   9.747   5.416 -0.2968 -0.1575 -0.1728
    1DIPC   D3B10931   9.086   9.868   5.401  0.2083  0.3461  0.1624
    1DIPC   C4B10932   9.368   9.506   5.331 -0.0630  0.1664 -0.1478
    1DIPC   NC310933  23.218  26.874   6.725  0.0586 -0.1597 -0.0683
    1DIPC   PO410934  23.659  27.060   6.576 -0.0637  0.0245  0.0335
    1DIPC   GL110935  23.756  26.873   6.200  0.1341  0.0496 -0.0549
    1DIPC   GL210936  24.039  27.001   6.112  0.1918 -0.2079  0.0275
    1DIPC   C1A10937  23.830  26.611   5.683 -0.1454  0.2055  0.0885
    1DIPC   D2A10938  23.975  26.837   5.283  0.0791 -0.4168  0.1537
    1DIPC   D3A10939  24.160  26.414   5.302 -0.0897  0.0959  0.3031
    1DIPC   C4A10940  24.215  26.256   5.768  0.1666  0.1882  0.0306
    1DIPC   C1B10941  24.355  26.654   6.131  0.3530 -0.3173  0.0924
    1DIPC   D2B10942  24.646  26.262   5.928  0.2004  0.1189 -0.1283
    1DIPC   D3B10943  24.543  25.931   5.620 -0.1078 -0.0245  0.1563
    1DIPC   C4B10944  24.465  26.043   5.168  0.1081 -0.0923 -0.0217
    1DIPC   NC310945  22.947  24.906   7.266  0.1341 -0.0932  0.0736
    1DIPC   PO410946  23.127  25.246   7.118  0.0207 -0.1233 -0.1048
    1DIPC   GL110947  23.437  25.257   6.733 -0.3300 -0.0744  0.2326
    1DIPC   GL210948  23.273  25.552   6.647 -0.2100 -0.0485  0.2712
    1DIPC   C1A10949  23.616  25.172   6.299 -0.0918 -0.0129  0.2360
    1DIPC   D2A10950  23.409  25.079   5.925  0.1864  0.1666 -0.1946
    1DIPC   D3A10951  23.092  25.098   5.599  0.1149 -0.0772  0.1124
    1DIPC   C4A10952  22.910  25.338   5.288 -0.2844 -0.1022  0.0180
    1DIPC   C1B10953  23.213  25.489   6.315  0.0493  0.4864  0.3451
    1DIPC   D2B10954  22.927  25.258   6.046 -0.4939  0.1100  0.0053
    1DIPC   D3B10955  22.480  25.055   6.208  0.0115 -0.1637  0.1449
    1DIPC   C4B10956  22.284  24.788   5.968  0.3731  0.2110  0.2439
    1DIPC   NC310957   9.214  19.210   6.656 -0.1758  0.1006  0.1737
    1DIPC   PO410958   8.805  19.384   6.460  0.0586 -0.1544 -0.0030
    1DIPC   GL110959   8.727  19.390   5.992 -0.1120  0.1092  0.0861
    1DIPC   GL210960   8.434  19.400   5.918  0.2016 -0.2277 -0.3339
    1DIPC   C1A10961   8.762  19.584   5.543  0.1110  0.0124  0.2089
    1DIPC   D2A10962   8.657  19.760   5.123  0.0483  0.1018  0.0242
    1DIPC   D3A10963   8.501  19.602   4.816 -0.2310 -0.0182 -0.2421
    1DIPC   C4A10964   8.474  19.943   4.490  0.0609  0.1031  0.0217
    1DIPC   C1B10965   8.664  19.005   5.760  0.2355  0.2539  0.0783
    1DIPC   D2B10966   8.828  18.618   5.809  0.1452 -0.1013 -0.0695
    1DIPC   D3B10967   8.927  18.608   5.432  0.0488 -0.1518 -0.0232
    1DIPC   C4B10968   9.141  18.957   5.340 -0.1152 -0.0319  0.1260
    1DIPC   NC310969  13.310  23.701   6.678 -0.1105  0.2404 -0.1191
    1DIPC   PO410970  13.083  24.084   6.822 -0.0927  0.4558  0.0819
    1DIPC   GL110971  13.295  24.196   6.523  0.3429  0.0924 -0.0082
    1DIPC   GL210972  13.510  23.945   6.317 -0.2275  0.1401  0.1541
    1DIPC   C1A10973  13.290  24.324   6.147 -0.0423  0.2176  0.0494
    1DIPC   D2A10974  13.056  24.494   5.732 -0.2595 -0.0346  0.1197
    1DIPC   D3A10975  12.923  24.283   5.304 -0.0716 -0.3690 -0.2785
    1DIPC   C4A10976  12.808  24.061   4.960  0.1352 -0.2711  0.1431
    1DIPC   C1B10977  13.747  24.137   6.087 -0.2631 -0.1967  0.1269
    1DIPC   D2B10978  13.775  24.447   5.848  0.3396  0.0784 -0.1322
    1DIPC   D3B10979  13.646  24.650   5.459  0.0439  0.0483 -0.2372
    1DIPC   C4B10980  13.496  24.404   5.185  0.3100  0.0336  0.1828
    1DIPC   NC310981   2.374   9.983   6.651  0.0643  0.2262  0.0940
    1DIPC   PO410982   2.013   9.858   6.485  0.3366  0.0007  0.2784
    1DIPC   GL110983   1.882  10.152   6.203  0.1872 -0.0394 -0.2011
    1DIPC   GL210984   1.545  10.179   6.160  0.0896  0.0001  0.1260
    1DIPC   C1A10985   1.903  10.416   5.847  0.1067  0.0995 -0.0696
    1DIPC   D2A10986   1.928  10.089   5.476  0.0248  0.2212  0.2343
    1DIPC   D3A10987   1.552   9.828   5.573 -0.0933 -0.0279 -0.0318
    1DIPC   C4A10988   1.205   9.692   5.303  0.0345 -0.0474  0.0082
    1DIPC   C1B10989   1.373  10.248   5.729  0.0698 -0.2099  0.0647
    1DIPC   D2B10990   1.320  10.179   5.267 -0.1821  0.0550 -0.0928
    1DIPC   D3B10991   1.407  10.144   4.796  0.0574  0.1159 -0.1049
    1DIPC   C4B10992   1.397   9.880   4.523  0.2836 -0.2798 -0.1691
    1DIPC   NC310993  10.046  23.845   6.306 -0.0920  0.0251 -0.2877
    1DIPC   PO410994   9.801  24.123   6.147 -0.1839 -0.3897  0.1842
    1DIPC   GL110995   9.793  24.262   5.730  0.0291  0.0557 -0.2183
    1DIPC   GL210996   9.961  24.444   5.627  0.2002 -0.0650  0.1022
    1DIPC   C1A10997  10.093  24.021   5.440 -0.1504 -0.2294 -0.1691
    1DIPC   D2A10998  10.319  23.658   5.317 -0.1697 -0.0907  0.0941
    1DIPC   D3A10999  10.600  23.706   5.090  0.0996 -0.0662  0.1545
    1DIPC   C4A11000  10.776  24.056   4.769 -0.0713 -0.2812  0.3073
    1DIPC   C1B11001  10.102  24.832   5.292 -0.0739  0.2262 -0.3289
    1DIPC   D2B11002  10.044  25.270   5.229 -0.0719  0.1130 -0.0096
    1DIPC   D3B11003   9.797  25.151   4.963 -0.1575  0.3505  0.3643
    1DIPC   C4B11004   9.434  24.957   4.962  0.1582  0.1227 -0.4007
    1DIPC   NC311005   0.041   1.208   7.126 -0.1276  0.0294 -0.0037
    1DIPC   PO411006   0.131   0.814   6.798 -0.2464 -0.3348 -0.3214
    1DIPC   GL111007   0.285   0.815   6.284  0.3440 -0.1990  0.0757
    1DIPC   GL211008   0.021   0.943   6.029 -0.2809  0.2510  0.2759
    1DIPC   C1A11009   0.379   0.408   6.106  0.1739  0.2088  0.0009
    1DIPC   D2A11010   0.395   0.185   5.779 -0.1883 -0.4660 -0.3198
    1DIPC   D3A11011   0.064  -0.123   5.483 -0.4506 -0.0633  0.1539
    1DIPC   C4A11012   0.204  -0.369   5.072 -0.1713  0.2111 -0.2870
    1DIPC   C1B11013   0.315   0.736   5.729 -0.1451  0.1791  0.0114
    1DIPC   D2B11014   0.674   0.569   5.602 -0.4008  0.0089  0.0146
    1DIPC   D3B11015   0.660   0.338   5.227 -0.0139  0.3912 -0.0837
    1DIPC   C4B11016   0.626  -0.087   5.254  0.0153  0.1213  0.1363
    1DIPC   NC311017  27.490  10.448   6.425 -0.0237 -0.1966  0.1613
    1DIPC   PO411018  27.582  10.746   6.117  0.3563  0.0654 -0.0795
    1DIPC   GL111019  27.576  10.498   5.830 -0.1433 -0.1573 -0.1693
    1DIPC   GL211020  27.944  10.507   5.767 -0.0623 -0.0084  0.0446
    1DIPC   C1A11021  27.567  10.521   5.394  0.0287  0.3175  0.1177
    1DIPC   D2A11022  27.500  10.600   5.000 -0.0439  0.1658  0.0854
    1DIPC   D3A11023  27.046  10.645   4.872  0.1359 -0.1272 -0.1316
    1DIPC   C4A11024  26.917  10.545   4.489  0.2420 -0.0145  0.0004
    1DIPC   C1B11025  28.205  10.859   5.616 -0.1140 -0.1285 -0.1210
    1DIPC   D2B11026  28.234  11.145   5.277 -0.1952 -0.0869 -0.0608
    1DIPC   D3B11027  28.057  11.573   5.302  0.1028  0.2173 -0.1014
    1DIPC   C4B11028  27.862  11.624   4.889 -0.1638  0.0653 -0.2751
    1DIPC   NC311029  28.315   5.789   6.573  0.0762 -0.2077 -0.3323
    1DIPC   PO411030  28.505   5.918   6.142 -0.0796 -0.0717  0.1063
    1DIPC   GL111031  28.494   6.010   5.625 -0.2081  0.3754  0.1140
    1DIPC   GL211032  28.740   6.172   5.413  0.3247 -0.0582  0.0935
    1DIPC   C1A11033  28.197   6.041   5.313  0.1876 -0.1406  0.0369
    1DIPC   D2A11034  28.211   6.067   4.841 -0.1383  0.0784  0.0477
    1DIPC   D3A11035  28.344   6.314   4.479 -0.3307  0.2372  0.0182
    1DIPC   C4A11036  28.662   6.215   4.132 -0.3461 -0.0274  0.0021
    1DIPC   C1B11037  28.644   5.939   5.098 -0.0731 -0.2620  0.0510
    1DIPC   D2B11038  28.726   5.967   4.777  0.4061  0.1908  0.0908
    1DIPC   D3B11039  28.431   5.863   4.387  0.0273 -0.2699 -0.1103
    1DIPC   C4B11040  28.202   5.512   4.186 -0.1571  0.0520 -0.1697
    1DIPC   NC311041  26.286   3.029   6.145  0.0865  0.0500  0.1354
    1DIPC   PO411042  26.085   2.641   6.051  0.0697 -0.3945  0.3620
    1DIPC   GL111043  26.230   2.287   5.770  0.0751 -0.2818 -0.1278
    1DIPC   GL211044  26.271   1.973   5.770  0.0870  0.1071 -0.3722
    1DIPC   C1A11045  26.512   2.115   5.390 -0.1514  0.2126 -0.3567
    1DIPC   D2A11046  26.914   2.206   5.171 -0.2142  0.1180 -0.4576
    1DIPC   D3A11047  27.179   2.415   4.756 -0.1369  0.0461 -0.0276
    1DIPC   C4A11048  27.665   2.597   4.745 -0.0518  0.1573 -0.2191
    1DIPC   C1B11049  26.065   1.761   5.419 -0.0632  0.2071  0.1011
    1DIPC   D2B11050  25.904   1.591   4.996 -0.0832  0.1507 -0.2241
    1DIPC   D3B11051  25.878   1.130   4.979 -0.1355 -0.1461 -0.1398
    1DIPC   C4B11052  26.074   0.871   4.652  0.0125  0.0836 -0.0705
    1DIPC   NC311053   3.209   6.424   6.121  0.1252  0.1305 -0.1636
    1DIPC   PO411054   3.547   6.102   6.136 -0.1599  0.0057  0.2569
    1DIPC   GL111055   3.589   6.237   5.730 -0.1192  0.0153  0.1905
    1DIPC   GL211056   3.874   6.237   5.756 -0.1232 -0.0525 -0.0077
    1DIPC   C1A11057   3.510   6.480   5.305  0.2970 -0.1260 -0.1388
    1DIPC   D2A11058   3.134   6.574   4.953  0.1904  0.0347  0.2667
    1DIPC   D3A11059   3.210   6.244   4.722 -0.0538 -0.0257  0.1663
    1DIPC   C4A11060   3.592   6.170   4.436 -0.0485 -0.0236  0.1333
    1DIPC   C1B11061   3.949   6.365   5.396  0.4426 -0.0071  0.1408
    1DIPC   D2B11062   4.151   6.604   4.975  0.3283  0.0536 -0.1451
    1DIPC   D3B11063   4.289   7.146   5.131  0.0440 -0.2347  0.2502
    1DIPC   C4B11064   4.098   7.549   5.065  0.1881  0.2005  0.2910
    1DIPC   NC311065  11.953   1.660   7.410 -0.1860 -0.1401  0.2171
    1DIPC   PO411066  11.650   1.368   7.573  0.1579 -0.0184 -0.1660
    1DIPC   GL111067  11.731   1.213   7.085  0.0322 -0.1063  0.0837
    1DIPC   GL211068  11.975   1.177   6.882 -0.0980 -0.1621  0.0483
    1DIPC   C1A11069  11.514   1.098   6.633 -0.0122  0.2034  0.2800
    1DIPC   D2A11070  11.579   1.015   6.233  0.2333  0.1660  0.1385
    1DIPC   D3A11071  11.223   0.930   5.970  0.1019 -0.2952  0.1925
    1DIPC   C4A11072  11.008   1.210   5.712 -0.2809  0.4460  0.0604
    1DIPC   C1B11073  12.121   1.103   6.449 -0.2747  0.1176  0.1935
    1DIPC   D2B11074  12.414   1.293   6.113 -0.0455  0.0396  0.1226
    1DIPC   D3B11075  12.212   1.644   5.855  0.0501 -0.2710  0.0399
    1DIPC   C4B11076  11.761   1.636   5.736 -0.1100 -0.0099 -0.0221
    1DIPC   NC311077   5.832   7.818   6.275 -0.1895 -0.1039 -0.0335
    1DIPC   PO411078   5.563   7.497   6.412  0.1245 -0.0858 -0.0150
    1DIPC   GL111079   5.474   7.301   5.944  0.1776 -0.1311  0.0724
    1DIPC   GL211080   5.203   7.175   5.854  0.0175 -0.0994 -0.2142
    1DIPC   C1A11081   5.563   7.014   5.618 -0.1547  0.1948  0.1188
    1DIPC   D2A11082   5.409   6.579   5.586 -0.0057  0.2592 -0.0616
    1DIPC   D3A11083   5.902   6.614   5.515  0.4080 -0.0752  0.0699
    1DIPC   C4A11084   6.072   6.524   5.042 -0.0189  0.2936 -0.0889
    1DIPC   C1B11085   5.032   6.887   5.667  0.0700 -0.1177  0.2369
    1DIPC   D2B11086   4.890   6.418   5.601 -0.0231  0.1989  0.0624
    1DIPC   D3B11087   5.115   6.498   5.158  0.0206 -0.1419 -0.2909
    1DIPC   C4B11088   4.977   6.479   4.738  0.1594  0.1888  0.1921
    1DIPC   NC311089   6.687   6.797   7.231 -0.0618 -0.0160 -0.0324
    1DIPC   PO411090   6.426   7.128   6.980  0.0784 -0.1523  0.3078
    1DIPC   GL111091   6.527   7.187   6.492  0.1374  0.1860  0.0504
    1DIPC   GL211092   6.845   7.181   6.371  0.3360 -0.1928  0.1649
    1DIPC   C1A11093   6.487   7.114   6.009  0.0030  0.1662 -0.2628
    1DIPC   D2A11094   6.701   7.275   5.579  0.0377 -0.2111  0.2004
    1DIPC   D3A11095   6.331   7.420   5.310  0.2745  0.1301 -0.0582
    1DIPC   C4A11096   6.264   7.356   4.851  0.1610  0.0896  0.0062
    1DIPC   C1B11097   6.929   6.837   6.136 -0.1606  0.0008 -0.0556
    1DIPC   D2B11098   7.206   6.481   6.005  0.0189 -0.3403 -0.0749
    1DIPC   D3B11099   7.024   6.034   5.837  0.3287 -0.3879 -0.0508
    1DIPC   C4B11100   6.791   5.948   5.504 -0.0263  0.4085 -0.2312
    1DIPC   NC311101  28.787   9.985   6.315  0.2125  0.0429 -0.0582
    1DIPC   PO411102  28.495   9.572   6.322  0.0785 -0.2848  0.1620
    1DIPC   GL111103  28.573   9.675   5.928 -0.1845 -0.1030  0.2071
    1DIPC   GL211104  28.434   9.484   5.741  0.0303 -0.1187 -0.1219
    1DIPC   C1A11105  28.788   9.926   5.582  0.1221  0.3190 -0.0959
    1DIPC   D2A11106  29.252   9.830   5.438 -0.1672 -0.0964 -0.0576
    1DIPC   D3A11107  29.564  10.112   5.112  0.3626  0.0276 -0.1837
    1DIPC   C4A11108  29.814   9.896   4.822  0.2169 -0.2821  0.0313
    1DIPC   C1B11109  28.277   9.417   5.366  0.2468  0.0294  0.1650
    1DIPC   D2B11110  28.313   9.469   4.970  0.0992 -0.0072  0.0531
    1DIPC   D3B11111  28.047   9.543   4.661  0.0448  0.3635  0.0372
    1DIPC   C4B11112  27.713   9.747   4.474 -0.0647  0.0178  0.1602
    1DIPC   NC311113   4.457  15.320   6.818  0.0579 -0.0925 -0.2698
    1DIPC   PO411114   4.453  15.091   6.425 -0.1446  0.1174  0.3838
    1DIPC   GL111115   4.537  14.974   5.977  0.0029 -0.1248  0.0464
    1DIPC   GL211116   4.740  14.706   5.973  0.0069  0.4174 -0.0376
    1DIPC   C1A11117   4.339  14.805   5.542  0.1019  0.0565 -0.2958
    1DIPC   D2A11118   4.440  14.848   5.084  0.5470  0.2814  0.0561
    1DIPC   D3A11119   4.484  14.467   4.877  0.0066  0.0950  0.0641
    1DIPC   C4A11120   4.740  14.252   4.512  0.2817  0.0977 -0.2086
    1DIPC   C1B11121   4.893  14.293   5.776  0.0636  0.1975 -0.0211
    1DIPC   D2B11122   5.279  14.063   5.681 -0.0122 -0.2390 -0.1993
    1DIPC   D3B11123   5.395  14.092   5.300  0.0786 -0.1028  0.0930
    1DIPC   C4B11124   5.662  14.054   5.032 -0.2465 -0.3535 -0.0637
    1DIPC   NC311125   5.662  28.131   6.975  0.0716 -0.2862 -0.1890
    1DIPC   PO411126   5.989  28.395   6.856 -0.0280  0.2158 -0.0878
    1DIPC   GL111127   6.117  28.463   6.388  0.2092  0.0924  0.0077
    1DIPC   GL211128   5.821  28.407   6.273 -0.2869  0.0695 -0.1362
    1DIPC   C1A11129   6.201  28.207   6.055  0.3527 -0.1524  0.0108
    1DIPC   D2A11130   6.181  27.991   5.701  0.3087 -0.0939 -0.0951
    1DIPC   D3A11131   5.968  27.749   5.402  0.0776 -0.1031  0.0307
    1DIPC   C4A11132   6.124  27.417   5.144  0.0480  0.0748  0.1174
    1DIPC   C1B11133   5.743  28.382   5.834  0.0557  0.4655  0.0187
    1DIPC   D2B11134   5.695  28.135   5.533 -0.4042 -0.1502 -0.1499
    1DIPC   D3B11135   5.768  28.509   5.377 -0.0754 -0.1126 -0.2565
    1DIPC   C4B11136   5.511  28.661   5.107  0.0164 -0.0067 -0.1140
    1DIPC   NC311137  24.713  10.600   6.619  0.1095  0.1081  0.0475
    1DIPC   PO411138  24.609  10.630   6.174 -0.0016  0.0445 -0.2596
    1DIPC   GL111139  24.796  10.523   5.797  0.0641 -0.2353 -0.1385
    1DIPC   GL211140  25.117  10.424   5.850 -0.1662  0.0276 -0.0670
    1DIPC   C1A11141  24.955  10.570   5.350  0.3301 -0.1164 -0.1935
    1DIPC   D2A11142  24.720  10.540   4.990  0.1183  0.2526  0.1497
    1DIPC   D3A11143  24.777  11.024   5.015 -0.1639 -0.3713  0.1912
    1DIPC   C4A11144  24.656  11.200   5.414  0.2138 -0.0037  0.1717
    1DIPC   C1B11145  25.397  10.445   5.472  0.1294 -0.0870  0.5133
    1DIPC   D2B11146  25.662  10.678   5.138 -0.0803 -0.1692  0.2428
    1DIPC   D3B11147  25.340  10.524   4.950  0.0287  0.1119 -0.0515
    1DIPC   C4B11148  25.224  10.532   4.499  0.0134 -0.0827 -0.1916
    1DIPC   NC311149   5.370   7.924   6.587 -0.0241  0.2010 -0.0300
    1DIPC   PO411150   5.377   7.990   6.188  0.1651  0.1712  0.1612
    1DIPC   GL111151   5.504   8.057   5.833 -0.0982 -0.1714  0.1412
    1DIPC   GL211152   5.562   8.373   5.929 -0.2634 -0.1476 -0.2953
    1DIPC   C1A11153   5.812   8.004   5.602 -0.1726 -0.1788  0.2837
    1DIPC   D2A11154   6.121   7.877   5.422  0.1625  0.0128  0.0831
    1DIPC   D3A11155   5.828   7.542   5.333 -0.0770 -0.2771  0.0998
    1DIPC   C4A11156   5.794   7.410   4.912 -0.0037 -0.1581 -0.2436
    1DIPC   C1B11157   5.930   8.489   5.713  0.0790  0.1523  0.1153
    1DIPC   D2B11158   6.046   8.311   5.283 -0.1909  0.2451 -0.0748
    1DIPC   D3B11159   6.065   8.717   5.217  0.2337  0.2742  0.0476
    1DIPC   C4B11160   6.399   8.879   5.501  0.0233  0.0139 -0.0737
    1DIPC   NC311161   3.424  10.908   6.165 -0.1210 -0.1374  0.1420
    1DIPC   PO411162   3.295  11.213   6.476  0.0311 -0.0273  0.0045
    1DIPC   GL111163   3.234  11.353   6.020  0.2961 -0.1629  0.4028
    1DIPC   GL211164   3.542  11.218   5.763  0.0636  0.2116  0.0035
    1DIPC   C1A11165   3.024  11.561   5.669  0.0255 -0.1396 -0.0836
    1DIPC   D2A11166   2.719  11.354   5.421 -0.2137  0.0850  0.2790
    1DIPC   D3A11167   2.705  10.898   5.429 -0.0805 -0.1694 -0.0781
    1DIPC   C4A11168   2.581  10.647   5.030  0.1780 -0.2388  0.3611
    1DIPC   C1B11169   3.498  11.653   5.712 -0.1015 -0.1912 -0.3078
    1DIPC   D2B11170   3.204  11.993   5.516 -0.0913 -0.0880 -0.0965
    1DIPC   D3B11171   3.211  11.701   5.172 -0.1874  0.3273  0.1078
    1DIPC   C4B11172   3.293  11.937   4.692 -0.2099 -0.1810 -0.6749
    1DIPC   NC311173   7.827  18.749   6.199 -0.1199 -0.1927  0.1734
    1DIPC   PO411174   7.770  18.356   6.072 -0.0443  0.0032 -0.0661
    1DIPC   GL111175   7.683  18.028   5.865 -0.0255 -0.1295  0.1817
    1DIPC   GL211176   8.013  17.902   5.845  0.1593 -0.1753 -0.0191
    1DIPC   C1A11177   7.711  17.900   5.497 -0.0084 -0.0196  0.3005
    1DIPC   D2A11178   7.730  17.573   5.180 -0.0866 -0.1623  0.0246
    1DIPC   D3A11179   8.120  17.553   5.444  0.0738 -0.1210  0.1573
    1DIPC   C4A11180   8.440  17.779   5.504 -0.1377  0.0113 -0.1297
    1DIPC   C1B11181   8.166  18.158   5.456  0.2416 -0.2034  0.0367
    1DIPC   D2B11182   7.919  18.305   5.213  0.0673 -0.2953  0.5258
    1DIPC   D3B11183   7.661  18.035   5.002  0.0434 -0.0936  0.0393
    1DIPC   C4B11184   7.349  17.873   5.118  0.0628  0.0813 -0.0441
    1DIPC   NC311185  25.720   9.562   6.268  0.0272  0.1465 -0.0144
    1DIPC   PO411186  26.184   9.572   6.116 -0.0963 -0.0325  0.0766
    1DIPC   GL111187  26.434   9.492   5.761 -0.0841 -0.2064 -0.3509
    1DIPC   GL211188  26.716   9.287   5.617  0.1785  0.0275 -0.0175
    1DIPC   C1A11189  26.549   9.665   5.371 -0.0414  0.1689  0.3221
    1DIPC   D2A11190  26.386   9.656   4.881  0.0194 -0.4030 -0.0566
    1DIPC   D3A11191  26.412  10.095   5.051 -0.1672  0.1042  0.1066
    1DIPC   C4A11192  26.490  10.364   4.690  0.1418 -0.0545 -0.1905
    1DIPC   C1B11193  26.825   9.289   5.251 -0.3893 -0.4250 -0.1369
    1DIPC   D2B11194  26.557   9.190   4.762 -0.1481 -0.2217  0.6068
    1DIPC   D3B11195  26.143   9.286   4.691  0.2351 -0.1391 -0.2484
    1DIPC   C4B11196  25.831   9.188   4.439  0.1152  0.1543 -0.1065
    1DIPC   NC311197   1.110  19.161   6.258  0.1250 -0.0935 -0.0393
    1DIPC   PO411198   1.111  19.009   5.910 -0.3608  0.1204  0.2110
    1DIPC   GL111199   1.271  19.318   5.601  0.1111  0.0767 -0.2067
    1DIPC   GL211200   1.619  19.342   5.496  0.1018  0.0121 -0.2321
    1DIPC   C1A11201   1.149  19.738   5.353  0.0369  0.0412  0.1618
    1DIPC   D2A11202   0.857  20.154   5.445 -0.2669 -0.1224 -0.0913
    1DIPC   D3A11203   0.479  19.996   5.200 -0.1267  0.0741  0.0155
    1DIPC   C4A11204   0.464  19.748   4.869 -0.0227  0.0344 -0.2389
    1DIPC   C1B11205   1.485  19.098   5.124  0.0059 -0.1133 -0.0397
    1DIPC   D2B11206   1.219  19.121   4.792 -0.0490  0.3113 -0.0370
    1DIPC   D3B11207   0.911  19.444   4.863  0.0873 -0.1514  0.0282
    1DIPC   C4B11208   0.757  19.492   5.296  0.0762 -0.2093  0.1050
    1DIPC   NC311209   7.723  19.598   6.128  0.1506 -0.1460 -0.1973
    1DIPC   PO411210   7.437  19.957   6.042 -0.0748  0.1849  0.1553
    1DIPC   GL111211   7.638  19.888   5.525  0.0684 -0.3153 -0.1834
    1DIPC   GL211212   7.243  20.043   5.290 -0.1266 -0.1667 -0.0970
    1DIPC   C1A11213   7.671  19.942   5.026 -0.1972  0.2928  0.2276
    1DIPC   D2A11214   7.588  20.019   4.542  0.1530  0.2493  0.2380
    1DIPC   D3A11215   7.864  20.353   4.644  0.0021 -0.3615  0.2902
    1DIPC   C4A11216   7.792  20.738   4.454  0.1146 -0.2082  0.0206
    1DIPC   C1B11217   7.372  20.315   4.901 -0.1349  0.2442 -0.0326
    1DIPC   D2B11218   7.365  20.503   4.399  0.1971  0.1807 -0.1376
    1DIPC   D3B11219   7.098  20.043   4.393 -0.0667 -0.0694  0.2528
    1DIPC   C4B11220   7.099  19.846   4.786 -0.0210  0.0894 -0.1098
    1DIPC   NC311221   6.605  21.602   5.950  0.0803 -0.1345 -0.0475
    1DIPC   PO411222   6.312  21.269   5.863 -0.0776 -0.1463 -0.1047
    1DIPC   GL111223   6.315  21.489   5.471 -0.3451 -0.0301  0.0570
    1DIPC   GL211224   6.525  21.669   5.453  0.1965  0.0525  0.0267
    1DIPC   C1A11225   6.108  21.608   5.039 -0.4879 -0.2045  0.1656
    1DIPC   D2A11226   6.142  21.619   4.654 -0.0177 -0.1103  0.0892
    1DIPC   D3A11227   6.446  21.521   4.422  0.5219  0.2402  0.3473
    1DIPC   C4A11228   6.491  21.583   3.937 -0.2884 -0.0333  0.1636
    1DIPC   C1B11229   6.717  21.525   5.086  0.1953 -0.0738  0.1596
    1DIPC   D2B11230   6.913  21.536   4.579  0.2849  0.2934 -0.0472
    1DIPC   D3B11231   6.796  21.872   4.227 -0.0322  0.3467 -0.2658
    1DIPC   C4B11232   6.855  22.284   4.276  0.2584  0.0406  0.1645
    1DIPC   NC311233  23.212   3.955   6.228 -0.1350  0.4552 -0.1353
    1DIPC   PO411234  23.590   3.982   5.942 -0.4278  0.0294  0.5093
    1DIPC   GL111235  23.187   4.010   5.709 -0.2636 -0.1182 -0.0886
    1DIPC   GL211236  23.108   4.316   5.460 -0.0560 -0.0314  0.0436
    1DIPC   C1A11237  22.889   3.826   5.491  0.1940  0.0511  0.3002
    1DIPC   D2A11238  22.795   3.706   5.104 -0.0682  0.3759  0.2817
    1DIPC   D3A11239  22.826   4.010   4.790  0.1850  0.4820 -0.0002
    1DIPC   C4A11240  23.210   4.188   4.672 -0.1827  0.0273  0.2759
    1DIPC   C1B11241  23.219   3.956   5.088  0.1233 -0.0561  0.2391
    1DIPC   D2B11242  23.602   3.936   4.843  0.2633  0.0126  0.0976
    1DIPC   D3B11243  23.549   4.373   4.981 -0.2996  0.0820  0.4265
    1DIPC   C4B11244  23.852   4.660   4.733 -0.1164  0.1122  0.0916
    1DIPC   NC311245   2.591  19.297   5.876 -0.1209 -0.0448 -0.1510
    1DIPC   PO411246   2.137  19.175   5.889 -0.1130  0.1052  0.1625
    1DIPC   GL111247   2.183  19.244   5.521 -0.2039 -0.1948 -0.1285
    1DIPC   GL211248   2.027  19.030   5.395 -0.2713 -0.2507 -0.0565
    1DIPC   C1A11249   2.288  19.537   5.119 -0.1504  0.0847  0.0392
    1DIPC   D2A11250   2.374  19.553   4.691  0.1463  0.2497  0.0974
    1DIPC   D3A11251   2.441  19.020   4.822  0.2712 -0.3040  0.4570
    1DIPC   C4A11252   2.454  18.870   5.250 -0.0850 -0.2086 -0.0466
    1DIPC   C1B11253   1.966  19.179   4.941 -0.2027  0.2183 -0.5158
    1DIPC   D2B11254   1.851  19.594   4.662  0.1403 -0.4909  0.5499
    1DIPC   D3B11255   2.139  19.771   4.315 -0.3194 -0.1055 -0.0313
    1DIPC   C4B11256   2.413  20.067   4.497  0.2758  0.1325  0.0272
    1DIPC   NC311257  18.721   2.451   6.473  0.1333  0.3434 -0.0778
    1DIPC   PO411258  18.195   2.395   6.438  0.0472  0.4022 -0.1414
    1DIPC   GL111259  18.291   2.558   6.085 -0.1490  0.0697 -0.0467
    1DIPC   GL211260  18.513   2.641   6.021  0.0148 -0.1653 -0.0167
    1DIPC   C1A11261  18.261   2.614   5.628  0.2412 -0.2304 -0.0502
    1DIPC   D2A11262  18.168   2.446   5.219  0.0608  0.2713  0.0071
    1DIPC   D3A11263  17.970   2.043   5.224  0.0451  0.0173 -0.0613
    1DIPC   C4A11264  18.338   1.812   5.484 -0.0090  0.0993  0.0230
    1DIPC   C1B11265  18.688   2.818   5.718  0.0294  0.1562 -0.3946
    1DIPC   D2B11266  19.145   2.882   5.600  0.2224 -0.2389 -0.0475
    1DIPC   D3B11267  19.024   2.714   5.220 -0.3117  0.2207  0.3206
    1DIPC   C4B11268  18.569   2.788   5.202 -0.1567 -0.0890  0.0419
    1DIPC   NC311269   0.883   0.067   6.844  0.3769  0.2301  0.1992
    1DIPC   PO411270   0.865   0.107   6.396  0.0798  0.0313 -0.0197
    1DIPC   GL111271   0.684  -0.158   6.174  0.0133 -0.0868 -0.0999
    1DIPC   GL211272   0.900  -0.388   6.137 -0.0440 -0.1342 -0.1012
    1DIPC   C1A11273   0.405  -0.261   5.869 -0.2555  0.1037 -0.1741
    1DIPC   D2A11274   0.113  -0.526   5.788 -0.2362  0.3405 -0.0492
    1DIPC   D3A11275  -0.312  -0.555   5.640 -0.1652  0.0439 -0.1937
    1DIPC   C4A11276  -0.409  -0.318   5.262 -0.1686 -0.3035 -0.1437
    1DIPC   C1B11277   0.773  -0.780   5.897  0.0146 -0.3320 -0.3210
    1DIPC   D2B11278   0.487  -1.066   5.631  0.0925 -0.4699  0.4116
    1DIPC   D3B11279   0.500  -0.564   5.485 -0.0934  0.2167  0.0590
    1DIPC   C4B11280   0.889  -0.327   5.657 -0.0905  0.1965 -0.0132
    1DIPC   NC311281   2.905  11.038   6.732  0.2307  0.1199 -0.2836
    1DIPC   PO411282   2.893  10.938   6.257 -0.5083 -0.1081 -0.3550
    1DIPC   GL111283   3.070  10.942   5.800 -0.0764 -0.2901 -0.1513
    1DIPC   GL211284   3.258  10.691   5.659 -0.3429  0.0056 -0.2247
    1DIPC   C1A11285   3.168  11.083   5.432 -0.1321  0.1107 -0.3376
    1DIPC   D2A11286   3.054  11.201   5.010 -0.1393 -0.1021 -0.1506
    1DIPC   D3A11287   2.741  11.095   4.789  0.0854  0.0350  0.0068
    1DIPC   C4A11288   2.694  10.804   4.467 -0.1256 -0.2822  0.0082
    1DIPC   C1B11289   3.052  10.592   5.193 -0.1116  0.0868 -0.1397
    1DIPC   D2B11290   3.104  10.602   4.707 -0.2923  0.0812 -0.2171
    1DIPC   D3B11291   3.529  10.596   4.581 -0.1719 -0.1242 -0.1008
    1DIPC   C4B11292   3.806  10.906   4.649  0.3011 -0.0285 -0.0721
    1DIPC   NC311293  15.624   3.606   7.354  0.1054  0.0344 -0.0839
    1DIPC   PO411294  15.796   3.406   6.995  0.2395  0.0204 -0.0493
    1DIPC   GL111295  15.511   3.580   6.740  0.0937 -0.1077 -0.2640
    1DIPC   GL211296  15.376   3.258   6.656  0.0093 -0.1283 -0.1519
    1DIPC   C1A11297  15.424   3.662   6.290 -0.1314 -0.0929  0.1918
    1DIPC   D2A11298  15.015   3.535   6.205  0.2701  0.0616 -0.0529
    1DIPC   D3A11299  15.002   3.610   6.608 -0.1257  0.1285 -0.2318
    1DIPC   C4A11300  14.692   3.292   6.722  0.2739 -0.0555  0.1973
    1DIPC   C1B11301  15.431   3.148   6.192 -0.0166  0.3690  0.0153
    1DIPC   D2B11302  15.620   3.126   5.897 -0.0844 -0.1569  0.3950
    1DIPC   D3B11303  15.519   3.571   5.771  0.2426 -0.1842  0.0809
    1DIPC   C4B11304  15.163   3.957   5.884  0.1367  0.3091  0.0866
    1DIPC   NC311305  11.277   1.999   7.583 -0.0850 -0.2829  0.0828
    1DIPC   PO411306  11.713   2.076   7.617 -0.3444 -0.0174 -0.3681
    1DIPC   GL111307  11.893   2.069   7.130 -0.0072  0.2116 -0.0551
    1DIPC   GL211308  11.938   2.251   6.925 -0.1095  0.2575  0.1062
    1DIPC   C1A11309  11.795   1.762   6.768  0.2020  0.0382  0.0424
    1DIPC   D2A11310  11.522   1.561   6.490  0.0561  0.0353 -0.1544
    1DIPC   D3A11311  11.141   1.840   6.391  0.1901 -0.1159 -0.0374
    1DIPC   C4A11312  11.027   2.135   6.010  0.1613 -0.1340 -0.1974
    1DIPC   C1B11313  11.925   2.098   6.450 -0.0810  0.2844 -0.1352
    1DIPC   D2B11314  11.899   2.010   6.056  0.2167  0.0063 -0.2208
    1DIPC   D3B11315  11.489   1.936   6.033  0.0375  0.0808  0.0677
    1DIPC   C4B11316  11.380   1.920   5.672 -0.3318  0.3006 -0.0696
    1DIPC   NC311317  24.939  15.193   5.338  0.0089 -0.0726 -0.0155
    1DIPC   PO411318  25.312  15.000   5.430  0.0003  0.2219 -0.1662
    1DIPC   GL111319  25.458  14.966   5.107  0.0216 -0.1254  0.0157
    1DIPC   GL211320  25.271  14.647   4.983 -0.1359 -0.0110 -0.1827
    1DIPC   C1A11321  25.384  15.038   4.686 -0.0930 -0.2654  0.1329
    1DIPC   D2A11322  25.545  15.172   4.278  0.1089 -0.0926  0.2486
    1DIPC   D3A11323  25.270  15.053   4.047  0.2516  0.1986  0.0595
    1DIPC   C4A11324  24.879  15.091   4.248 -0.0108 -0.3832 -0.1982
    1DIPC   C1B11325  25.512  14.257   4.749 -0.0086  0.0616  0.0039
    1DIPC   D2B11326  25.730  14.154   4.310  0.0268 -0.2835 -0.1528
    1DIPC   D3B11327  25.571  13.856   3.980 -0.0191 -0.3805  0.0252
    1DIPC   C4B11328  25.575  13.491   4.159  0.0861 -0.5466  0.2433
    1DIPC   NC311329  26.300  23.225   7.275  0.0728  0.0640  0.3958
    1DIPC   PO411330  26.400  22.897   6.869 -0.4429 -0.4866  0.1302
    1DIPC   GL111331  26.343  22.814   6.400 -0.0550 -0.1375 -0.1504
    1DIPC   GL211332  26.144  22.556   6.232  0.0956 -0.2998 -0.0545
    1DIPC   C1A11333  26.519  23.150   6.063 -0.0974  0.0210  0.0410
    1DIPC   D2A11334  26.748  23.287   5.710  0.2217  0.0801  0.1720
    1DIPC   D3A11335  27.106  23.252   5.720 -0.1138 -0.0645  0.0865
    1DIPC   C4A11336  27.377  23.565   5.375 -0.3143  0.3092 -0.0043
    1DIPC   C1B11337  26.007  22.984   6.013 -0.2201  0.0498  0.3949
    1DIPC   D2B11338  25.688  23.263   5.751  0.3263  0.2498  0.0708
    1DIPC   D3B11339  25.315  23.359   5.831 -0.0509  0.2180 -0.1892
    1DIPC   C4B11340  24.959  23.745   5.656 -0.0470 -0.1561  0.3068
    1DIPC   NC311341  24.827  27.705   6.582  0.1100  0.1012 -0.1946
    1DIPC   PO411342  24.416  27.667   6.580 -0.3929 -0.1351 -0.0121
    1DIPC   GL111343  24.200  27.602   6.239 -0.1357  0.0917 -0.0349
    1DIPC   GL211344  24.058  27.868   6.066 -0.0292 -0.2446  0.0165
    1DIPC   C1A11345  24.137  27.389   5.831 -0.1663  0.3682 -0.0461
    1DIPC   D2A11346  24.091  27.367   5.269  0.2141  0.0141  0.0826
    1DIPC   D3A11347  23.932  27.820   5.118 -0.3860  0.1571  0.2078
    1DIPC   C4A11348  23.690  28.148   4.810 -0.3003 -0.0654  0.0444
    1DIPC   C1B11349  24.149  27.947   5.650  0.0048  0.2019  0.1101
    1DIPC   D2B11350  24.626  28.092   5.508  0.0904 -0.1313  0.1036
    1DIPC   D3B11351  24.478  27.717   5.208  0.1670 -0.3286  0.1996
    1DIPC   C4B11352  24.872  27.636   4.904 -0.1583  0.1862  0.3176
    1DIPC   NC311353   1.358  17.583   6.605  0.1627  0.2145 -0.0548
    1DIPC   PO411354   0.976  17.442   6.322 -0.0876  0.1980 -0.1498
    1DIPC   GL111355   0.868  17.391   5.921 -0.1953 -0.3165 -0.1542
    1DIPC   GL211356   1.080  17.396   5.592 -0.2107  0.0992  0.0446
    1DIPC   C1A11357   0.584  17.107   5.710 -0.1026  0.4283  0.0062
    1DIPC   D2A11358   0.625  16.701   5.565  0.2199  0.2010  0.0269
    1DIPC   D3A11359   0.325  16.439   5.693 -0.0366 -0.0683  0.2796
    1DIPC   C4A11360   0.148  16.307   5.384  0.0303  0.1838  0.5246
    1DIPC   C1B11361   0.940  17.547   5.143 -0.0296  0.1183 -0.1380
    1DIPC   D2B11362   0.985  17.777   4.727  0.1620  0.0471 -0.0131
    1DIPC   D3B11363   1.225  17.791   4.456 -0.2055 -0.0510 -0.3505
    1DIPC   C4B11364   1.200  18.225   4.307 -0.0022 -0.3811  0.0156
    1DIPC   NC311365   1.531   9.449   6.057 -0.0872  0.1015 -0.0247
    1DIPC   PO411366   1.909   9.692   5.920  0.1222 -0.3121 -0.0599
    1DIPC   GL111367   2.114   9.542   5.608 -0.0408 -0.3575 -0.0733
    1DIPC   GL211368   2.500   9.599   5.658 -0.2308 -0.0547 -0.0871
    1DIPC   C1A11369   1.850   9.590   5.184  0.1668 -0.0234  0.0682
    1DIPC   D2A11370   1.618   9.785   5.032 -0.2634  0.0380 -0.0080
    1DIPC   D3A11371   1.421   9.442   4.823 -0.1284  0.1416 -0.1388
    1DIPC   C4A11372   1.554   9.183   4.509 -0.0224 -0.2564  0.1115
    1DIPC   C1B11373   2.363   9.878   5.340  0.2316  0.1573  0.0450
    1DIPC   D2B11374   2.217   9.902   4.913 -0.1800  0.2811  0.0947
    1DIPC   D3B11375   2.272   9.887   4.491 -0.0768 -0.0124 -0.0231
    1DIPC   C4B11376   2.301   9.492   4.159 -0.2598  0.1476  0.5538
    1DIPC   NC311377  18.325  25.288   7.153  0.1873  0.1930  0.1310
    1DIPC   PO411378  18.420  25.600   7.005  0.4473 -0.0837  0.0291
    1DIPC   GL111379  18.574  25.780   6.657  0.0265 -0.2904  0.2451
    1DIPC   GL211380  18.584  25.793   6.354  0.6343  0.1737 -0.0424
    1DIPC   C1A11381  18.562  26.238   6.523 -0.1007 -0.2733 -0.0783
    1DIPC   D2A11382  18.662  26.389   6.089 -0.0875 -0.0480  0.4295
    1DIPC   D3A11383  18.537  26.411   5.639  0.0624  0.1908 -0.0344
    1DIPC   C4A11384  18.461  26.109   5.374 -0.0306  0.0127 -0.4781
    1DIPC   C1B11385  18.370  26.026   6.054 -0.0300 -0.4960 -0.0428
    1DIPC   D2B11386  18.032  26.087   5.729  0.1037 -0.0805 -0.0260
    1DIPC   D3B11387  18.092  26.415   5.403  0.1967 -0.2547  0.1841
    1DIPC   C4B11388  18.238  26.835   5.452 -0.1805  0.0065 -0.1414
    1DIPC   NC311389   1.826  23.105   6.054  0.0376 -0.2615  0.3570
    1DIPC   PO411390   1.940  22.650   5.992  0.0357 -0.2086 -0.3683
    1DIPC   GL111391   2.121  22.685   5.600 -0.0461 -0.0555 -0.1103
    1DIPC   GL211392   1.957  22.475   5.381 -0.0554  0.3634 -0.3596
    1DIPC   C1A11393   2.183  22.866   5.233  0.0066  0.0311  0.0821
    1DIPC   D2A11394   1.783  22.911   4.897 -0.0476 -0.3117  0.0964
    1DIPC   D3A11395   1.768  22.445   4.859  0.1915  0.1066 -0.1507
    1DIPC   C4A11396   2.182  22.178   4.766 -0.0338 -0.1234  0.1670
    1DIPC   C1B11397   1.975  22.190   5.201  0.1097  0.3659 -0.0190
    1DIPC   D2B11398   1.750  21.865   4.859 -0.1178 -0.1299  0.0368
    1DIPC   D3B11399   1.652  22.098   4.507  0.0037  0.1973 -0.1505
    1DIPC   C4B11400   1.281  22.267   4.615  0.0657  0.2124  0.2995
    1DIPC   NC311401  24.477   5.320   6.330 -0.0996 -0.0356  0.2166
    1DIPC   PO411402  24.617   5.621   6.046  0.0548 -0.0907  0.1553
    1DIPC   GL111403  24.545   5.719   5.662 -0.2162  0.0631 -0.1760
    1DIPC   GL211404  24.278   5.479   5.713 -0.3455 -0.0716 -0.1693
    1DIPC   C1A11405  24.490   5.635   5.230  0.0215  0.1543  0.0090
    1DIPC   D2A11406  24.604   5.243   4.982  0.0291  0.1838 -0.1392
    1DIPC   D3A11407  24.522   5.298   4.587  0.1306 -0.1086 -0.0790
    1DIPC   C4A11408  24.168   5.057   4.303 -0.1017  0.0210  0.0095
    1DIPC   C1B11409  24.175   5.231   5.265  0.0648  0.2836 -0.1217
    1DIPC   D2B11410  24.075   5.108   4.813  0.2538  0.1040  0.1862
    1DIPC   D3B11411  23.825   5.371   4.649 -0.0342 -0.0044 -0.0469
    1DIPC   C4B11412  23.406   5.431   4.679  0.2773 -0.0826 -0.1693
    1DIPC   NC311413  14.417  25.589   7.816  0.0747 -0.0367 -0.1729
    1DIPC   PO411414  14.484  25.565   7.379 -0.2708  0.1137 -0.3949
    1DIPC   GL111415  14.300  25.641   7.018  0.0687 -0.0599 -0.1246
    1DIPC   GL211416  14.534  25.764   6.874 -0.1357 -0.0826  0.1865
    1DIPC   C1A11417  13.857  25.582   6.862 -0.1051 -0.1913 -0.2312
    1DIPC   D2A11418  13.742  25.634   6.470 -0.1886 -0.0552  0.0708
    1DIPC   D3A11419  13.848  26.097   6.185  0.0847  0.3897  0.0892
    1DIPC   C4A11420  13.755  26.274   5.709 -0.1812 -0.2985 -0.0256
    1DIPC   C1B11421  14.609  25.442   6.611 -0.3099  0.3869 -0.1375
    1DIPC   D2B11422  14.446  25.018   6.558 -0.2242 -0.3017  0.0115
    1DIPC   D3B11423  14.139  24.829   6.277  0.2346  0.0409 -0.1183
    1DIPC   C4B11424  14.204  24.489   6.176  0.3403 -0.2041 -0.1639
    1DIPC   NC311425   6.225   8.945   6.906 -0.3085  0.1474 -0.1190
    1DIPC   PO411426   6.056   8.850   6.510 -0.0826  0.1371 -0.0043
    1DIPC   GL111427   6.228   8.829   6.139  0.1402  0.0444 -0.0070
    1DIPC   GL211428   6.351   9.204   5.994 -0.1940 -0.0384  0.1160
    1DIPC   C1A11429   6.417   8.572   5.866  0.1548 -0.3487 -0.0874
    1DIPC   D2A11430   6.479   8.235   5.521  0.1149 -0.2785 -0.2887
    1DIPC   D3A11431   6.690   8.434   5.254  0.0226  0.0916 -0.0420
    1DIPC   C4A11432   7.116   8.604   4.952 -0.1806 -0.2068 -0.0173
    1DIPC   C1B11433   6.143   9.310   5.681 -0.1304 -0.2883  0.1397
    1DIPC   D2B11434   5.972   9.204   5.294 -0.1604  0.1669 -0.1705
    1DIPC   D3B11435   6.386   9.025   5.051 -0.1366 -0.0453  0.1920
    1DIPC   C4B11436   6.577   8.795   4.759 -0.0155 -0.2466  0.0416
    1DIPC   NC311437  12.942   6.269   7.613 -0.2950 -0.0042 -0.1344
    1DIPC   PO411438  12.956   6.065   7.325 -0.0193  0.1403  0.0847
    1DIPC   GL111439  12.907   6.270   6.903  0.0684  0.0203  0.2300
    1DIPC   GL211440  12.624   6.174   6.666  0.3044 -0.1268 -0.0954
    1DIPC   C1A11441  13.052   6.707   6.754 -0.1159  0.0524 -0.1642
    1DIPC   D2A11442  13.082   7.162   6.557  0.0013 -0.1228 -0.1151
    1DIPC   D3A11443  13.377   7.335   6.184  0.3103 -0.3152 -0.1770
    1DIPC   C4A11444  13.603   7.379   5.767 -0.0434 -0.1155  0.1355
    1DIPC   C1B11445  12.758   6.231   6.266  0.1363 -0.0017 -0.4600
    1DIPC   D2B11446  12.503   6.413   5.949 -0.2397  0.4109 -0.0338
    1DIPC   D3B11447  12.405   6.470   5.484  0.0651  0.3170 -0.1645
    1DIPC   C4B11448  12.643   6.485   5.115  0.0849  0.0719 -0.2044
    1DIPC   NC311449  23.892  28.400   6.398  0.0042  0.1101  0.0601
    1DIPC   PO411450  23.564  27.980   6.365 -0.1383 -0.0085  0.1883
    1DIPC   GL111451  23.467  27.784   5.973 -0.0463  0.3538  0.1778
    1DIPC   GL211452  23.695  27.735   5.701  0.4892  0.0201 -0.3401
    1DIPC   C1A11453  23.262  28.053   5.650  0.1770 -0.0178 -0.1393
    1DIPC   D2A11454  23.085  28.421   5.444 -0.1518  0.0829  0.4069
    1DIPC   D3A11455  22.963  28.670   5.101  0.4867  0.1747  0.2808
    1DIPC   C4A11456  23.207  28.819   4.872  0.0708 -0.0986  0.2659
    1DIPC   C1B11457  23.473  27.605   5.396  0.0349  0.1817  0.2986
    1DIPC   D2B11458  23.505  27.605   4.945 -0.1144  0.0196  0.0879
    1DIPC   D3B11459  23.628  27.184   5.037  0.1581 -0.0630  0.2308
    1DIPC   C4B11460  23.929  27.134   4.802  0.1749 -0.0088 -0.2863
    1DIPC   NC311461   5.589  11.530   6.428 -0.2867 -0.0572 -0.0587
    1DIPC   PO411462   5.896  11.695   6.654  0.1563 -0.2371 -0.1236
    1DIPC   GL111463   6.023  11.856   6.289 -0.0400  0.7033  0.1984
    1DIPC   GL211464   5.768  11.951   6.162 -0.0869 -0.0554  0.3238
    1DIPC   C1A11465   6.117  12.341   6.169 -0.0193  0.2431 -0.0657
    1DIPC   D2A11466   6.355  12.504   5.981 -0.2137  0.2630  0.1299
    1DIPC   D3A11467   6.028  12.754   5.787 -0.0070  0.0733  0.0902
    1DIPC   C4A11468   5.619  12.705   5.987  0.1300  0.0781 -0.2752
    1DIPC   C1B11469   5.769  12.270   5.777 -0.2028  0.1812 -0.2821
    1DIPC   D2B11470   5.711  12.576   5.480 -0.0585  0.1708  0.0774
    1DIPC   D3B11471   6.110  12.412   5.347 -0.2238 -0.3009  0.0176
    1DIPC   C4B11472   6.273  12.131   5.568  0.0541 -0.3007 -0.0003
    1DIPC   NC311473  28.021  13.534   5.832 -0.0470  0.0221 -0.0810
    1DIPC   PO411474  27.561  13.505   5.755 -0.0559 -0.2378 -0.2586
    1DIPC   GL111475  27.771  13.571   5.395  0.1630  0.0067 -0.4004
    1DIPC   GL211476  28.035  13.313   5.398  0.3355 -0.1049  0.1775
    1DIPC   C1A11477  27.676  13.545   5.037 -0.1699 -0.3381  0.1670
    1DIPC   D2A11478  27.715  13.682   4.578 -0.0348 -0.1426 -0.2802
    1DIPC   D3A11479  27.804  13.319   4.312  0.1347 -0.0537  0.2618
    1DIPC   C4A11480  27.794  12.931   4.284 -0.0031 -0.2280 -0.1040
    1DIPC   C1B11481  27.811  13.016   4.999 -0.0825 -0.2496  0.1578
    1DIPC   D2B11482  27.935  12.627   4.700 -0.1064  0.0267 -0.1969
    1DIPC   D3B11483  28.117  12.620   4.386  0.2009  0.1385  0.0341
    1DIPC   C4B11484  27.865  12.406   4.127 -0.0238  0.5459  0.1267
    1DIPC   NC311485   4.397  19.339   5.684 -0.3083  0.0786 -0.0590
    1DIPC   PO411486   4.368  18.971   5.826  0.1979  0.1035  0.2772
    1DIPC   GL111487   4.368  18.672   5.420 -0.1474 -0.0014  0.1484
    1DIPC   GL211488   4.722  18.490   5.276  0.0684  0.0255  0.1762
    1DIPC   C1A11489   4.535  18.889   5.028  0.1916 -0.2449  0.3904
    1DIPC   D2A11490   4.469  19.018   4.564  0.0270  0.4155 -0.0767
    1DIPC   D3A11491   4.789  19.237   4.328 -0.2495 -0.1527 -0.0447
    1DIPC   C4A11492   4.994  19.661   4.509  0.2851 -0.3353  0.1379
    1DIPC   C1B11493   4.333  18.360   5.036 -0.0926  0.0946  0.2418
    1DIPC   D2B11494   4.164  18.300   4.540 -0.2325 -0.1418 -0.2346
    1DIPC   D3B11495   4.186  18.417   4.185  0.1547 -0.1617 -0.2741
    1DIPC   C4B11496   4.036  18.058   3.872  0.0202  0.0004  0.0868
    1DIPC   NC311497  28.183   9.989   6.658  0.3429 -0.2427 -0.1352
    1DIPC   PO411498  28.415  10.299   6.489  0.1187  0.3827 -0.2588
    1DIPC   GL111499  28.653  10.416   6.118  0.0071  0.0821 -0.3859
    1DIPC   GL211500  28.374  10.544   6.052 -0.1150  0.0181  0.1081
    1DIPC   C1A11501  28.745  10.494   5.734  0.0229 -0.0521  0.0317
    1DIPC   D2A11502  28.630  10.459   5.267  0.0131 -0.2667  0.0890
    1DIPC   D3A11503  28.186  10.471   5.273  0.0736  0.2224 -0.0935
    1DIPC   C4A11504  28.006  10.705   4.939 -0.2596  0.1605  0.0476
    1DIPC   C1B11505  28.347  10.162   5.754  0.0155 -0.0216 -0.2349
    1DIPC   D2B11506  28.217   9.872   5.542  0.3026 -0.1040 -0.0942
    1DIPC   D3B11507  28.436   9.982   5.204 -0.1767  0.3795  0.2142
    1DIPC   C4B11508  28.563   9.888   4.814 -0.1653 -0.0722 -0.0146
    1DIPC   NC311509  22.607   0.204   6.523  0.1311  0.0686 -0.2465
    1DIPC   PO411510  22.213   0.116   6.461 -0.1749 -0.2313  0.1944
    1DIPC   GL111511  22.169  -0.226   6.097 -0.3001 -0.1680  0.0305
    1DIPC   GL211512  22.363  -0.088   5.820  0.1715  0.0489  0.0370
    1DIPC   C1A11513  21.853  -0.443   5.876 -0.0926 -0.0100  0.0564
    1DIPC   D2A11514  21.572  -0.796   5.999  0.1114 -0.0838 -0.2066
    1DIPC   D3A11515  21.274  -0.540   5.814  0.0329 -0.0890  0.1741
    1DIPC   C4A11516  21.187  -0.655   5.379  0.1691  0.0679 -0.1138
    1DIPC   C1B11517  22.396   0.252   5.493  0.2726  0.1613 -0.3488
    1DIPC   D2B11518  22.272   0.605   5.169 -0.1354 -0.1437  0.2121
    1DIPC   D3B11519  22.480   0.888   5.426 -0.0810 -0.1283  0.0838
    1DIPC   C4B11520  22.715   0.632   5.646  0.1788  0.1930  0.0101
    1DIPC   NC311521  15.520  25.324   6.850 -0.0009 -0.0169 -0.0070
    1DIPC   PO411522  15.841  25.547   6.593 -0.1124  0.0317 -0.1377
    1DIPC   GL111523  15.510  25.825   6.434 -0.0106  0.0953 -0.0131
    1DIPC   GL211524  15.507  26.157   6.576  0.0183 -0.0576  0.0187
    1DIPC   C1A11525  15.227  26.077   6.175 -0.0656 -0.0448  0.1492
    1DIPC   D2A11526  14.854  26.206   6.034  0.1845  0.0966  0.1404
    1DIPC   D3A11527  15.172  26.458   5.771 -0.1810  0.0000 -0.1487
    1DIPC   C4A11528  15.252  26.347   5.358 -0.1382 -0.1193  0.2415
    1DIPC   C1B11529  15.509  26.448   6.260  0.0665 -0.1285 -0.0132
    1DIPC   D2B11530  15.696  26.644   5.904 -0.4508  0.0578  0.1596
    1DIPC   D3B11531  15.559  26.783   5.514  0.1255  0.0656 -0.2772
    1DIPC   C4B11532  15.514  27.192   5.362 -0.2227 -0.0810  0.0048
    1DIPC   NC311533  21.648   9.029   7.626  0.1019  0.0101 -0.1829
    1DIPC   PO411534  21.670   9.051   7.056 -0.0919  0.0334 -0.2155
    1DIPC   GL111535  21.618   9.181   6.595 -0.0476 -0.2639  0.3530
    1DIPC   GL211536  21.728   9.155   6.394 -0.1172  0.2365 -0.0998
    1DIPC   C1A11537  21.206   9.240   6.324  0.2406  0.0086 -0.0249
    1DIPC   D2A11538  20.863   9.442   6.259 -0.0211 -0.2047 -0.0581
    1DIPC   D3A11539  20.840   9.383   5.823  0.1991 -0.3000  0.1221
    1DIPC   C4A11540  21.276   9.496   5.860  0.0797  0.1515  0.2421
    1DIPC   C1B11541  21.597   8.942   5.962  0.1918 -0.2689  0.0858
    1DIPC   D2B11542  21.825   9.020   5.559  0.1164  0.1006  0.3419
    1DIPC   D3B11543  21.659   9.479   5.457  0.0759 -0.0118  0.1366
    1DIPC   C4B11544  21.390   9.551   5.021 -0.0561  0.2282  0.1485
    1DIPC   NC311545   5.162  24.471   6.428 -0.2271  0.2010  0.0404
    1DIPC   PO411546   4.872  24.100   6.217 -0.1976 -0.0469 -0.2413
    1DIPC   GL111547   5.119  24.206   5.885 -0.3048 -0.2016 -0.3823
    1DIPC   GL211548   5.320  24.019   5.733 -0.0688  0.1018  0.0222
    1DIPC   C1A11549   5.084  24.478   5.563 -0.2091  0.0977 -0.0121
    1DIPC   D2A11550   5.196  24.861   5.125 -0.0740 -0.2000 -0.0301
    1DIPC   D3A11551   4.815  24.816   5.251  0.0975 -0.2275 -0.0453
    1DIPC   C4A11552   4.700  24.902   5.624 -0.1356  0.1449  0.0514
    1DIPC   C1B11553   5.301  23.882   5.377  0.2330  0.0939  0.2440
    1DIPC   D2B11554   5.646  23.626   5.145 -0.1434 -0.0220 -0.0756
    1DIPC   D3B11555   6.007  23.705   5.347 -0.0684  0.0344 -0.1505
    1DIPC   C4B11556   6.282  23.858   5.049  0.3149 -0.0448  0.0761
    1DIPC   NC311557   3.227  22.156   6.054 -0.1624  0.3268  0.0134
    1DIPC   PO411558   2.866  22.525   5.948  0.0539  0.2657 -0.1351
    1DIPC   GL111559   2.685  22.601   5.648  0.1271  0.1647  0.2248
    1DIPC   GL211560   2.606  22.912   5.551 -0.1318 -0.0159  0.0008
    1DIPC   C1A11561   2.482  22.478   5.120 -0.2386  0.0928 -0.2824
    1DIPC   D2A11562   2.276  22.700   4.745 -0.2841 -0.1554 -0.0492
    1DIPC   D3A11563   2.313  22.826   4.367 -0.2091 -0.3964  0.1643
    1DIPC   C4A11564   1.925  22.933   4.364 -0.3435 -0.0121  0.0938
    1DIPC   C1B11565   2.611  23.099   5.083  0.1119  0.3933  0.1557
    1DIPC   D2B11566   2.701  22.972   4.636  0.0267 -0.3190  0.1176
    1DIPC   D3B11567   2.649  23.414   4.443 -0.0459 -0.0442 -0.0084
    1DIPC   C4B11568   2.354  23.540   4.248  0.1125  0.0142  0.2379
    1DIPC   NC311569  27.383  20.119   6.607  0.2697  0.2365 -0.1727
    1DIPC   PO411570  27.561  19.778   6.600 -0.0259 -0.3041 -0.0919
    1DIPC   GL111571  27.478  19.878   6.165 -0.3794 -0.1042  0.1886
    1DIPC   GL211572  27.330  19.676   5.972  0.0208 -0.0715 -0.0178
    1DIPC   C1A11573  27.196  20.131   5.860 -0.2147  0.1468 -0.0809
    1DIPC   D2A11574  26.930  20.351   5.583  0.3392 -0.0920 -0.1114
    1DIPC   D3A11575  27.036  20.239   5.149 -0.2438 -0.2089  0.0623
    1DIPC   C4A11576  27.462  20.355   4.943 -0.2331 -0.0240 -0.2652
    1DIPC   C1B11577  27.450  19.726   5.531 -0.0884  0.1509  0.0824
    1DIPC   D2B11578  27.575  20.049   5.335 -0.4055 -0.0645 -0.1694
    1DIPC   D3B11579  27.981  20.111   5.389  0.2342 -0.1003  0.0600
    1DIPC   C4B11580  28.357  19.882   5.370 -0.2295  0.4177 -0.2661
    1DIPC   NC311581   3.367   4.012   6.813  0.0478 -0.4655 -0.1188
    1DIPC   PO411582   3.637   3.843   6.471  0.0197  0.1664 -0.3602
    1DIPC   GL111583   3.543   3.747   6.029 -0.1983 -0.0753 -0.3897
    1DIPC   GL211584   3.533   4.004   5.816 -0.0365  0.0672  0.0615
    1DIPC   C1A11585   3.158   3.573   5.896 -0.0185 -0.0781 -0.0883
    1DIPC   D2A11586   2.718   3.641   5.819 -0.0090  0.2458 -0.0734
    1DIPC   D3A11587   2.791   3.772   5.397  0.1250 -0.0329 -0.3976
    1DIPC   C4A11588   2.559   4.011   5.078  0.0307  0.0300  0.0704
    1DIPC   C1B11589   3.282   3.848   5.479  0.2193  0.2856 -0.1213
    1DIPC   D2B11590   3.056   4.131   5.171  0.2421 -0.3389  0.1703
    1DIPC   D3B11591   3.511   4.166   5.157 -0.1507  0.1099 -0.0828
    1DIPC   C4B11592   3.719   3.911   4.981  0.1802  0.1864  0.1481
    1DIPC   NC311593   6.946  24.910   6.693 -0.2851  0.0110 -0.2057
    1DIPC   PO411594   7.259  24.994   6.439 -0.0022  0.2689  0.0098
    1DIPC   GL111595   7.418  25.060   6.089  0.2741  0.0905 -0.3372
    1DIPC   GL211596   7.284  25.030   5.807 -0.3321 -0.2532 -0.0224
    1DIPC   C1A11597   7.659  25.374   5.967  0.0921  0.0613 -0.2064
    1DIPC   D2A11598   7.827  25.752   5.874 -0.2666 -0.0122  0.0449
    1DIPC   D3A11599   7.689  25.630   5.534 -0.2934 -0.0645  0.0281
    1DIPC   C4A11600   7.682  25.152   5.493 -0.0536  0.0289 -0.0209
    1DIPC   C1B11601   7.251  25.422   5.662  0.1124  0.4580 -0.1582
    1DIPC   D2B11602   7.263  25.799   5.324  0.2630  0.4168  0.1217
    1DIPC   D3B11603   7.331  26.117   5.154  0.1677 -0.0586 -0.1483
    1DIPC   C4B11604   7.076  26.362   4.967  0.0353 -0.1976 -0.1772
    1DIPC   NC311605   4.953  22.691   6.264 -0.0734 -0.0623 -0.1114
    1DIPC   PO411606   4.992  22.680   5.879 -0.1264  0.0416 -0.3289
    1DIPC   GL111607   4.783  22.592   5.460 -0.1338  0.0304  0.1101
    1DIPC   GL211608   4.561  22.828   5.222 -0.1853  0.0061  0.0561
    1DIPC   C1A11609   4.628  22.388   5.048  0.0733  0.0394  0.2079
    1DIPC   D2A11610   4.329  22.121   4.944  0.1572 -0.2576 -0.1574
    1DIPC   D3A11611   4.565  22.151   4.620 -0.0785  0.1160 -0.3886
    1DIPC   C4A11612   4.526  22.416   4.398  0.1664 -0.0321  0.0310
    1DIPC   C1B11613   4.374  22.764   4.842 -0.0997  0.1308  0.1020
    1DIPC   D2B11614   4.057  22.652   4.496 -0.0459  0.0351 -0.2286
    1DIPC   D3B11615   4.200  23.050   4.444  0.0658  0.0983 -0.3270
    1DIPC   C4B11616   4.643  22.971   4.436 -0.0397  0.1290 -0.2072
    1DIPC   NC311617   8.894  26.353   7.281 -0.0868 -0.0551  0.0083
    1DIPC   PO411618   8.824  26.330   6.810 -0.1179 -0.0652 -0.1964
    1DIPC   GL111619   8.786  26.176   6.412 -0.2477  0.2431  0.0883
    1DIPC   GL211620   9.056  26.057   6.188 -0.0708 -0.1940  0.1152
    1DIPC   C1A11621   8.644  26.180   5.926  0.0384 -0.3186 -0.1008
    1DIPC   D2A11622   8.802  26.437   5.580 -0.0356  0.1718 -0.0255
    1DIPC   D3A11623   8.754  26.819   5.649  0.0666 -0.0892  0.0623
    1DIPC   C4A11624   8.689  27.160   5.274 -0.2801 -0.0441 -0.0647
    1DIPC   C1B11625   9.477  25.960   6.079 -0.1916  0.1132 -0.3996
    1DIPC   D2B11626   9.602  26.106   5.688 -0.3504  0.0775 -0.1924
    1DIPC   D3B11627   9.746  26.011   5.295  0.0143 -0.0016 -0.0132
    1DIPC   C4B11628   9.927  25.818   5.110  0.1371  0.1135 -0.0297
    1DIPC   NC311629  12.558  12.257   7.068  0.0493 -0.0516  0.2381
    1DIPC   PO411630  12.106  12.297   7.138  0.2030  0.0069  0.0003
    1DIPC   GL111631  12.152  12.273   6.748  0.2647  0.1855  0.3100
    1DIPC   GL211632  12.377  12.050   6.602 -0.1159  0.1619 -0.1919
    1DIPC   C1A11633  11.773  12.260   6.537 -0.1410  0.3963  0.0325
    1DIPC   D2A11634  11.412  12.455   6.283  0.0102  0.0844 -0.0781
    1DIPC   D3A11635  11.502  12.483   5.859 -0.2568 -0.0083 -0.0667
    1DIPC   C4A11636  11.184  12.463   5.581 -0.2419 -0.0229 -0.1279
    1DIPC   C1B11637  12.086  12.106   6.224 -0.1528 -0.0450 -0.0247
    1DIPC   D2B11638  12.026  11.943   5.898  0.0004 -0.0661 -0.1524
    1DIPC   D3B11639  11.677  11.730   5.596  0.0613 -0.0774 -0.1175
    1DIPC   C4B11640  11.320  12.001   5.479 -0.1625 -0.1527  0.0997
    1DIPC   NC311641   5.350  20.305   6.146 -0.0633  0.2644 -0.0347
    1DIPC   PO411642   5.685  20.606   6.056  0.1656 -0.2533 -0.3075
    1DIPC   GL111643   5.548  20.484   5.652  0.0450 -0.0721 -0.0090
    1DIPC   GL211644   5.258  20.768   5.495  0.0444  0.3222 -0.3710
    1DIPC   C1A11645   5.671  20.672   5.215 -0.1359 -0.0138  0.1115
    1DIPC   D2A11646   5.585  20.930   4.792 -0.0281 -0.0190  0.0450
    1DIPC   D3A11647   5.952  20.708   4.443 -0.0640 -0.1396 -0.3959
    1DIPC   C4A11648   6.188  21.127   4.125  0.0883  0.2947 -0.4410
    1DIPC   C1B11649   4.820  20.791   5.361  0.1569  0.1291  0.0319
    1DIPC   D2B11650   4.433  20.715   5.611  0.1106 -0.1028  0.2161
    1DIPC   D3B11651   4.204  20.913   5.274 -0.2321  0.1777 -0.0167
    1DIPC   C4B11652   4.218  20.870   4.827  0.0291 -0.1769  0.0449
    1DIPC   NC311653  21.016  18.132   7.946 -0.1310 -0.0441 -0.0939
    1DIPC   PO411654  21.025  18.091   7.420  0.0436 -0.1746 -0.1525
    1DIPC   GL111655  20.985  17.946   6.978  0.0423  0.1670  0.0536
    1DIPC   GL211656  20.782  17.677   6.796 -0.1247 -0.0508 -0.2474
    1DIPC   C1A11657  20.952  18.195   6.645  0.0288  0.0651  0.0847
    1DIPC   D2A11658  21.099  18.187   6.237  0.2504  0.1925  0.1557
    1DIPC   D3A11659  20.962  18.298   5.721  0.1414 -0.3256 -0.2027
    1DIPC   C4A11660  21.170  18.463   5.392 -0.2158 -0.1987 -0.3559
    1DIPC   C1B11661  20.956  17.709   6.431 -0.4562  0.2870  0.0736
    1DIPC   D2B11662  20.770  17.810   6.103 -0.1181  0.0658 -0.0434
    1DIPC   D3B11663  20.880  17.781   5.704 -0.0684 -0.0177 -0.5014
    1DIPC   C4B11664  21.054  17.388   5.442  0.0674  0.1903 -0.2148
    1DIPC   NC311665   7.965  24.710   6.010  0.0792  0.1363 -0.2769
    1DIPC   PO411666   8.342  24.928   6.305  0.0992 -0.0373  0.5067
    1DIPC   GL111667   8.468  24.789   5.886  0.4788 -0.0171  0.0928
    1DIPC   GL211668   8.753  24.414   5.868 -0.0681  0.0409 -0.0410
    1DIPC   C1A11669   8.454  25.062   5.564  0.1451  0.1651  0.0244
    1DIPC   D2A11670   8.363  25.440   5.407 -0.1137 -0.1339 -0.1234
    1DIPC   D3A11671   8.019  25.312   5.131  0.0375  0.0974  0.1297
    1DIPC   C4A11672   7.610  25.527   5.052 -0.0477 -0.1131 -0.1139
    1DIPC   C1B11673   8.689  24.656   5.318 -0.1748 -0.0523 -0.1252
    1DIPC   D2B11674   8.631  25.160   5.111  0.2034 -0.0329 -0.1004
    1DIPC   D3B11675   8.307  25.127   4.769 -0.3773  0.1934  0.1996
    1DIPC   C4B11676   7.882  24.887   4.667 -0.1297 -0.1600  0.1371
    1DIPC   NC311677  17.705  20.579   7.323  0.0798 -0.3233  0.0227
    1DIPC   PO411678  17.778  20.190   7.245  0.0381  0.2783 -0.1060
    1DIPC   GL111679  18.003  20.438   6.947 -0.0180 -0.1498 -0.1450
    1DIPC   GL211680  17.948  20.734   6.869 -0.0578 -0.1693  0.3251
    1DIPC   C1A11681  18.263  20.375   6.642  0.2635  0.1004  0.1889
    1DIPC   D2A11682  18.182  20.111   6.339  0.2429  0.3130 -0.0120
    1DIPC   D3A11683  18.413  20.372   6.032 -0.2618 -0.0807  0.1373
    1DIPC   C4A11684  18.595  20.140   5.582 -0.0007  0.0289 -0.1346
    1DIPC   C1B11685  17.807  20.458   6.482  0.0932  0.0557 -0.0744
    1DIPC   D2B11686  17.662  20.202   6.240 -0.1322  0.0569 -0.0691
    1DIPC   D3B11687  17.720  20.216   5.762 -0.1943  0.2001 -0.1698
    1DIPC   C4B11688  18.116  20.207   5.687 -0.0550  0.0419 -0.0713
    1DIPC   NC311689   5.296   6.074   6.608 -0.2555 -0.2585 -0.2520
    1DIPC   PO411690   5.458   5.831   6.302  0.0362 -0.0221  0.0872
    1DIPC   GL111691   5.514   5.863   5.756 -0.2974 -0.2014 -0.1720
    1DIPC   GL211692   5.725   6.115   5.628  0.2960  0.1641 -0.2253
    1DIPC   C1A11693   5.751   5.507   5.535  0.1318  0.2114 -0.0010
    1DIPC   D2A11694   6.093   5.290   5.237  0.3724 -0.0145  0.2482
    1DIPC   D3A11695   6.034   4.832   5.107 -0.2068  0.0715 -0.0965
    1DIPC   C4A11696   5.975   4.287   5.121  0.0485 -0.2584  0.2917
    1DIPC   C1B11697   5.629   6.329   5.236 -0.2196 -0.2541  0.4417
    1DIPC   D2B11698   5.348   6.143   4.824 -0.0232 -0.2148 -0.1369
    1DIPC   D3B11699   5.191   5.927   4.425 -0.1588 -0.0169 -0.2248
    1DIPC   C4B11700   4.940   5.523   4.460  0.0005  0.2602 -0.2259
    1DIPC   NC311701  21.987  21.353   6.485  0.1300 -0.0992  0.1705
    1DIPC   PO411702  22.298  21.586   6.573 -0.2533  0.1824 -0.2228
    1DIPC   GL111703  22.549  21.761   6.265 -0.1953  0.0759  0.0436
    1DIPC   GL211704  22.380  21.963   6.053  0.1164  0.1074 -0.1807
    1DIPC   C1A11705  22.668  21.521   5.939  0.0444  0.2433 -0.2425
    1DIPC   D2A11706  22.645  21.616   5.582  0.0220 -0.1069 -0.0064
    1DIPC   D3A11707  22.467  21.784   5.199  0.1298  0.0986 -0.0027
    1DIPC   C4A11708  22.730  21.813   4.888  0.0616 -0.1895  0.1629
    1DIPC   C1B11709  22.181  21.808   5.628 -0.1713  0.1660 -0.4602
    1DIPC   D2B11710  22.046  21.534   5.230  0.3288 -0.3746  0.2796
    1DIPC   D3B11711  22.366  21.199   5.085 -0.0825 -0.1761 -0.2955
    1DIPC   C4B11712  22.306  20.844   4.721  0.1028 -0.0492  0.0989
    1DIPC   NC311713  17.826  19.208   7.388  0.1001 -0.0221 -0.2287
    1DIPC   PO411714  18.196  19.456   7.263  0.2587 -0.5310  0.3172
    1DIPC   GL111715  18.011  19.602   6.883  0.0268 -0.1414  0.2308
    1DIPC   GL211716  17.842  19.878   6.855  0.0642  0.0712 -0.0215
    1DIPC   C1A11717  17.888  19.640   6.400 -0.0105  0.0373  0.1235
    1DIPC   D2A11718  17.869  19.792   5.957  0.0662  0.1798 -0.0482
    1DIPC   D3A11719  17.822  19.446   5.787  0.1461 -0.1367 -0.0601
    1DIPC   C4A11720  17.530  19.387   5.461 -0.2004  0.0803  0.0651
    1DIPC   C1B11721  17.415  19.866   6.657  0.1558  0.2282 -0.4724
    1DIPC   D2B11722  17.378  19.797   6.242 -0.1402  0.2316 -0.3372
    1DIPC   D3B11723  17.254  19.484   6.305 -0.1803  0.0107 -0.1068
    1DIPC   C4B11724  16.808  19.309   6.191 -0.2637 -0.4231  0.0314
    1DIPC   NC311725  14.235   1.169   7.628  0.3911 -0.0192  0.0650
    1DIPC   PO411726  14.661   1.370   7.531  0.2111  0.1183  0.4431
    1DIPC   GL111727  14.504   1.113   7.212  0.2506  0.0641 -0.0796
    1DIPC   GL211728  14.251   1.207   6.920  0.0185 -0.0935 -0.0655
    1DIPC   C1A11729  14.637   0.728   7.052  0.1247  0.1451 -0.1303
    1DIPC   D2A11730  14.872   0.392   7.002  0.1768  0.1371 -0.0124
    1DIPC   D3A11731  14.832   0.105   6.665 -0.3610  0.0061  0.1355
    1DIPC   C4A11732  14.883   0.159   6.177  0.2007  0.0490  0.2114
    1DIPC   C1B11733  13.820   1.331   6.918  0.1499  0.1739 -0.1136
    1DIPC   D2B11734  13.400   1.421   6.973  0.0823 -0.0478 -0.0077
    1DIPC   D3B11735  13.120   1.363   6.644 -0.2447  0.0908  0.0788
    1DIPC   C4B11736  13.435   1.139   6.367  0.0685  0.1828 -0.0266
    1DIPC   NC311737   2.951  26.982   6.764  0.1632  0.2554  0.1693
    1DIPC   PO411738   3.186  27.427   6.727 -0.1389 -0.1952 -0.0391
    1DIPC   GL111739   3.430  27.356   6.392  0.4532  0.2879  0.0418
    1DIPC   GL211740   3.671  27.088   6.349 -0.2874 -0.1234  0.2860
    1DIPC   C1A11741   3.231  27.173   6.041 -0.2178  0.1149  0.0159
    1DIPC   D2A11742   3.034  26.898   5.611  0.1770 -0.5081  0.2316
    1DIPC   D3A11743   3.158  26.538   5.293  0.0013  0.0149 -0.0882
    1DIPC   C4A11744   3.009  26.537   4.780  0.1818  0.1851 -0.1440
    1DIPC   C1B11745   3.909  26.780   6.010 -0.0347  0.2067  0.1897
    1DIPC   D2B11746   4.068  26.477   5.597 -0.0351 -0.0229  0.1110
    1DIPC   D3B11747   4.006  26.779   5.256 -0.1307 -0.0267 -0.0220
    1DIPC   C4B11748   4.412  26.925   5.238  0.1124  0.5042  0.2001
    1DIPC   NC311749   0.842  11.552   6.367  0.0398  0.2355 -0.0122
    1DIPC   PO411750   0.914  11.132   6.406 -0.1091  0.0696 -0.1816
    1DIPC   GL111751   0.965  10.862   6.138 -0.4893  0.2213  0.1087
    1DIPC   GL211752   1.256  10.583   6.038  0.3247  0.1681  0.5837
    1DIPC   C1A11753   0.989  10.973   5.753  0.0123 -0.0409  0.2232
    1DIPC   D2A11754   1.349  10.999   5.691 -0.0360  0.1517 -0.0759
    1DIPC   D3A11755   1.437  10.682   5.405 -0.0167 -0.0018  0.1245
    1DIPC   C4A11756   1.705  10.424   5.122 -0.0155 -0.0003 -0.0850
    1DIPC   C1B11757   0.954  10.530   5.699  0.5425 -0.3021 -0.0158
    1DIPC   D2B11758   0.899  10.733   5.319 -0.1034  0.1265  0.1680
    1DIPC   D3B11759   1.124  11.042   5.186 -0.5583  0.0926 -0.2772
    1DIPC   C4B11760   0.863  11.352   4.939 -0.1217 -0.0105 -0.0311
    1DIPC   NC311761  20.776  10.713   7.113  0.1765  0.1103  0.1536
    1DIPC   PO411762  21.201  10.545   7.012 -0.0520 -0.2101  0.2667
    1DIPC   GL111763  21.234  10.560   6.652 -0.1382 -0.1076 -0.0153
    1DIPC   GL211764  20.902  10.614   6.527  0.1938  0.1191  0.1176
    1DIPC   C1A11765  21.336  10.655   6.201  0.0607  0.0784  0.1734
    1DIPC   D2A11766  21.388  10.291   5.901  0.1335 -0.2023 -0.1473
    1DIPC   D3A11767  21.458   9.984   5.674 -0.2997 -0.1202 -0.0227
    1DIPC   C4A11768  21.215   9.818   5.471  0.2057 -0.4851  0.2084
    1DIPC   C1B11769  20.826  10.812   6.186  0.0698  0.1643 -0.0469
    1DIPC   D2B11770  20.966  11.051   5.908 -0.1304 -0.1642 -0.0243
    1DIPC   D3B11771  20.874  10.719   5.620  0.0704 -0.2558  0.0662
    1DIPC   C4B11772  21.107  10.820   5.246 -0.2531 -0.1300 -0.1336
    1DIPC   NC311773  25.700   1.261   6.252 -0.1452  0.3220  0.0535
    1DIPC   PO411774  25.613   1.696   6.226  0.0102  0.3203  0.2992
    1DIPC   GL111775  25.771   1.721   5.871 -0.0262  0.0161  0.2415
    1DIPC   GL211776  26.014   1.457   5.785 -0.0244  0.0003 -0.0445
    1DIPC   C1A11777  25.577   1.861   5.438  0.2043 -0.0267 -0.1301
    1DIPC   D2A11778  25.531   1.961   5.032 -0.0095  0.0336  0.3450
    1DIPC   D3A11779  25.438   2.344   5.339 -0.2255 -0.0112  0.1392
    1DIPC   C4A11780  25.515   2.653   5.149 -0.2125 -0.4046  0.0419
    1DIPC   C1B11781  25.774   1.297   5.416 -0.0041  0.0976 -0.0465
    1DIPC   D2B11782  25.448   1.315   5.191  0.0229  0.1523 -0.3038
    1DIPC   D3B11783  25.495   1.507   4.771 -0.1521 -0.2542 -0.1199
    1DIPC   C4B11784  25.388   1.639   4.338 -0.0410 -0.1417  0.0538
    1DIPC   NC311785  27.350  23.674   6.884  0.1743  0.1340  0.2058
    1DIPC   PO411786  27.270  23.505   6.512 -0.1509  0.0048 -0.0933
    1DIPC   GL111787  27.392  23.604   6.049  0.2431 -0.0023 -0.0592
    1DIPC   GL211788  27.248  23.857   5.779  0.2066  0.1221 -0.0266
    1DIPC   C1A11789  27.751  23.748   5.851 -0.1697 -0.2406  0.4018
    1DIPC   D2A11790  28.098  23.867   5.722 -0.0473 -0.0045  0.0092
    1DIPC   D3A11791  27.917  23.706   5.414 -0.0183  0.3263 -0.1761
    1DIPC   C4A11792  28.094  23.926   4.958  0.2415 -0.1445 -0.2462
    1DIPC   C1B11793  26.931  23.719   5.589 -0.1220 -0.2652 -0.1654
    1DIPC   D2B11794  26.903  23.419   5.195  0.2016 -0.2437  0.0598
    1DIPC   D3B11795  27.186  23.033   5.250 -0.3871  0.0625  0.0403
    1DIPC   C4B11796  27.167  22.774   4.914  0.3066  0.0292  0.1100
    1DIPC   NC311797  12.204  26.929   8.109  0.0222  0.3068  0.3159
    1DIPC   PO411798  12.297  26.727   7.802  0.0825 -0.0752 -0.0600
    1DIPC   GL111799  12.340  27.165   7.641 -0.3348 -0.1252  0.0259
    1DIPC   GL211800  12.478  27.156   7.294 -0.0751 -0.2070  0.0573
    1DIPC   C1A11801  12.587  27.590   7.416 -0.1671  0.3197  0.1956
    1DIPC   D2A11802  13.105  27.639   7.358 -0.2819  0.0325  0.1483
    1DIPC   D3A11803  13.502  27.933   7.218  0.1167 -0.0104  0.1661
    1DIPC   C4A11804  13.638  27.966   6.835 -0.1861 -0.0234  0.0425
    1DIPC   C1B11805  12.436  27.254   6.839 -0.0056 -0.3075 -0.0232
    1DIPC   D2B11806  12.160  27.164   6.562 -0.1983 -0.1446  0.0590
    1DIPC   D3B11807  12.343  27.576   6.506  0.2154 -0.1469 -0.2105
    1DIPC   C4B11808  12.021  27.840   6.648 -0.1304 -0.1254 -0.1776
    1DIPC   NC311809   8.610  19.809   6.244  0.2270 -0.1643  0.1019
    1DIPC   PO411810   8.174  19.605   6.355  0.0731 -0.0612  0.1583
    1DIPC   GL111811   8.111  19.824   5.968  0.0169 -0.2971  0.0685
    1DIPC   GL211812   8.372  19.860   5.828 -0.1172  0.0180 -0.4214
    1DIPC   C1A11813   8.020  20.200   5.656  0.0743  0.2461 -0.2137
    1DIPC   D2A11814   7.698  20.351   5.387  0.1344  0.1146 -0.1812
    1DIPC   D3A11815   8.051  20.284   5.161  0.0722  0.1118  0.1525
    1DIPC   C4A11816   8.221  20.032   4.892 -0.1952  0.1674 -0.0952
    1DIPC   C1B11817   8.218  19.730   5.461 -0.0501 -0.0581  0.0741
    1DIPC   D2B11818   8.093  19.511   5.081  0.0508  0.0217 -0.1339
    1DIPC   D3B11819   7.694  19.473   5.178  0.0727  0.0054 -0.0732
    1DIPC   C4B11820   7.548  19.461   4.725 -0.0332  0.3316 -0.1287
    1DIPC   NC311821  25.446  12.282   6.033 -0.1499  0.3452  0.0173
    1DIPC   PO411822  25.124  12.013   5.771  0.0823  0.0256 -0.1902
    1DIPC   GL111823  25.234  12.081   5.268 -0.1789 -0.0491 -0.2645
    1DIPC   GL211824  25.332  12.270   5.175  0.1346 -0.0158 -0.0305
    1DIPC   C1A11825  25.375  12.029   4.804 -0.2507 -0.0943 -0.2646
    1DIPC   D2A11826  25.159  11.829   4.462  0.2656  0.0016  0.0012
    1DIPC   D3A11827  24.902  11.867   4.888  0.3236  0.0477 -0.0169
    1DIPC   C4A11828  24.885  11.502   5.092 -0.1411  0.1299  0.0503
    1DIPC   C1B11829  25.740  12.357   5.016 -0.3055  0.0781  0.2037
    1DIPC   D2B11830  26.053  12.546   4.749 -0.2262  0.2867  0.1985
    1DIPC   D3B11831  26.184  12.861   4.524  0.0790 -0.4904 -0.0370
    1DIPC   C4B11832  25.850  13.083   4.131  0.3783  0.1945  0.0983
    1DIPC   NC311833   3.681  17.451   6.205  0.0259 -0.1261 -0.2681
    1DIPC   PO411834   3.340  17.598   6.003  0.0459  0.0627 -0.2225
    1DIPC   GL111835   3.422  17.252   5.671  0.0145  0.0863 -0.2925
    1DIPC   GL211836   3.773  17.241   5.677 -0.2055 -0.2226 -0.2444
    1DIPC   C1A11837   3.508  17.246   5.236 -0.0443  0.3561 -0.1037
    1DIPC   D2A11838   3.731  17.133   4.783 -0.0126  0.0530 -0.0308
    1DIPC   D3A11839   3.516  17.167   4.323 -0.0451 -0.0408 -0.1086
    1DIPC   C4A11840   3.128  17.204   4.218 -0.0086  0.3539  0.3298
    1DIPC   C1B11841   4.064  17.142   5.280 -0.1229 -0.2110 -0.2005
    1DIPC   D2B11842   4.129  16.831   4.896 -0.1207 -0.2340  0.0271
    1DIPC   D3B11843   3.932  16.615   4.462  0.2000 -0.1214 -0.0828
    1DIPC   C4B11844   3.481  16.682   4.404 -0.1239  0.1517 -0.1033
    1DIPC   NC311845  26.343  14.713   5.664  0.2278  0.0684  0.1424
    1DIPC   PO411846  26.045  14.422   5.776  0.0959 -0.0402  0.2346
    1DIPC   GL111847  25.918  14.452   5.320  0.0566  0.1944  0.2141
    1DIPC   GL211848  25.796  14.159   5.290 -0.1530 -0.0903  0.0379
    1DIPC   C1A11849  25.777  14.622   4.924 -0.0176 -0.1313  0.1826
    1DIPC   D2A11850  25.729  14.633   4.502 -0.1283 -0.0856  0.2159
    1DIPC   D3A11851  26.085  14.395   4.551  0.1814  0.3067  0.0267
    1DIPC   C4A11852  26.335  14.365   4.900 -0.2210 -0.0520  0.3784
    1DIPC   C1B11853  26.004  14.030   4.872  0.1723  0.0253  0.0650
    1DIPC   D2B11854  25.770  13.739   4.588  0.0313 -0.2926 -0.0217
    1DIPC   D3B11855  25.973  13.347   4.491  0.1619 -0.1424  0.3402
    1DIPC   C4B11856  26.288  13.174   4.189 -0.1158 -0.2089  0.1255
    1CHOL   ROH11857  25.198   1.854   5.811  0.2412  0.2506  0.1525
    1CHOL    R111858  25.047   1.825   5.573  0.2279  0.1028  0.1784
    1CHOL    R211859  25.035   2.022   5.379  0.1127  0.0350  0.1179
    1CHOL    R311860  25.114   1.820   5.216  0.1893  0.0206  0.1717
    1CHOL    R411861  25.068   2.047   5.036 -0.1063 -0.1000  0.0845
    1CHOL    R511862  24.981   1.848   5.018  0.0493 -0.1854  0.2316
    1CHOL    C111863  25.162   1.872   4.683 -0.1620 -0.1921  0.1155
    1CHOL    C211864  25.107   2.132   4.417 -0.3117 -0.2042 -0.3262
    1CHOL   ROH11865   8.116  22.301   5.435  0.0641  0.1724  0.0360
    1CHOL    R111866   8.047  22.093   5.255  0.1646  0.0369  0.1544
    1CHOL    R211867   7.965  22.141   4.996  0.0729 -0.1466  0.1545
    1CHOL    R311868   8.167  21.970   4.934  0.1724 -0.0436  0.1858
    1CHOL    R411869   7.989  21.960   4.702  0.1282 -0.2388  0.2139
    1CHOL    R511870   8.060  21.790   4.818  0.2572 -0.1563  0.2701
    1CHOL    C111871   8.192  21.694   4.474  0.2538 -0.1956  0.2780
    1CHOL    C211872   8.295  21.942   4.172 -0.2415 -0.0816 -0.0062
    1CHOL   ROH11873  12.093   3.202   4.159 -0.1230 -0.2768 -0.1734
    1CHOL    R111874  11.957   3.147   4.401  0.0178 -0.0992 -0.0513
    1CHOL    R211875  11.731   2.989   4.412 -0.0999  0.0802  0.1684
    1CHOL    R311876  11.875   2.852   4.598 -0.0655  0.0211  0.0984
    1CHOL    R411877  11.598   2.833   4.691 -0.0585 -0.0341  0.1249
    1CHOL    R511878  11.769   2.904   4.806 -0.0472 -0.0633  0.1316
    1CHOL    C111879  11.656   2.614   5.027 -0.0020 -0.1561  0.0338
    1CHOL    C211880  11.541   2.847   5.343  0.0224  0.1373  0.1055
    1CHOL   ROH11881   8.749  14.629   5.938 -0.0738 -0.1612 -0.0672
    1CHOL    R111882   8.906  14.689   5.710  0.1367 -0.2623  0.0492
    1CHOL    R211883   9.015  14.494   5.548 -0.2676 -0.3412 -0.1321
    1CHOL    R311884   8.885  14.630   5.351  0.0982  0.1874 -0.0299
    1CHOL    R411885   9.089  14.472   5.211 -0.3979 -0.3829 -0.1601
    1CHOL    R511886   9.058  14.688   5.196  0.2630 -0.2528 -0.0282
    1CHOL    C111887   9.011  14.588   4.830 -0.1303  0.0891 -0.0804
    1CHOL    C211888   8.880  14.597   4.513 -0.2863  0.0542  0.0915
    1CHOL   ROH11889   4.372  23.823   5.336 -0.0597  0.1278 -0.0635
    1CHOL    R111890   4.322  23.791   5.060 -0.2388 -0.1395 -0.0029
    1CHOL    R211891   4.517  23.825   4.868 -0.4550  0.0712 -0.1819
    1CHOL    R311892   4.442  23.576   4.792 -0.0954 -0.1154  0.0378
    1CHOL    R411893   4.519  23.710   4.542 -0.7532 -0.0253 -0.1538
    1CHOL    R511894   4.330  23.610   4.582 -0.5108 -0.3939  0.1941
    1CHOL    C111895   4.449  23.409   4.280 -0.5893 -0.2568  0.0687
    1CHOL    C211896   4.377  23.016   3.987  0.3967  0.1013  0.0610
    1CHOL   ROH11897  18.386   9.136   6.698 -0.0623 -0.0217  0.0313
    1CHOL    R111898  18.513   9.111   6.446 -0.0992 -0.0333  0.0124
    1CHOL    R211899  18.421   8.938   6.250 -0.1709  0.0055  0.0030
    1CHOL    R311900  18.421   9.163   6.098 -0.1314  0.0230  0.0309
    1CHOL    R411901  18.418   8.943   5.905  0.1701  0.0546 -0.0015
    1CHOL    R511902  18.560   9.108   5.911  0.0797  0.1207  0.1604
    1CHOL    C111903  18.416   9.157   5.560  0.4058  0.0994  0.0222
    1CHOL    C211904  18.482   9.272   5.196  0.1115  0.1133  0.0245
    1CHOL   ROH11905   6.829   1.206   3.542  0.0789  0.1013 -0.0748
    1CHOL    R111906   6.686   1.275   3.777  0.1461  0.3446 -0.1021
    1CHOL    R211907   6.608   1.087   3.964 -0.3949  0.4364 -0.2189
    1CHOL    R311908   6.741   1.250   4.136 -0.0526  0.0394 -0.0892
    1CHOL    R411909   6.518   1.143   4.292 -0.4401  0.5623 -0.2524
    1CHOL    R511910   6.568   1.353   4.265  0.1318  0.4552 -0.1561
    1CHOL    C111911   6.589   1.329   4.646 -0.1453  0.2629 -0.1501
    1CHOL    C211912   6.488   1.685   4.778 -0.3233  0.1107 -0.2097
    1CHOL   ROH11913   7.396   1.688   4.754  0.1066 -0.2941  0.0879
    1CHOL    R111914   7.655   1.777   4.825  0.0718 -0.1365  0.0219
    1CHOL    R211915   7.708   1.911   5.061  0.0292  0.0092 -0.0510
    1CHOL    R311916   7.892   1.714   5.094  0.1250  0.1114  0.0358
    1CHOL    R411917   7.945   1.900   5.312 -0.3199 -0.0376  0.2848
    1CHOL    R511918   8.089   1.827   5.167 -0.0554  0.1928  0.4209
    1CHOL    C111919   8.255   1.708   5.490 -0.4332  0.0311  0.5618
    1CHOL    C211920   8.393   1.786   5.836 -0.1871  0.0125  0.2237
    1CHOL   ROH11921  11.075   8.094   3.810 -0.3037 -0.0972  0.0153
    1CHOL    R111922  10.963   8.078   4.070 -0.2157 -0.0328  0.0572
    1CHOL    R211923  11.109   7.994   4.290 -0.1363  0.0401  0.0318
    1CHOL    R311924  11.026   8.231   4.394 -0.1191  0.0632 -0.0057
    1CHOL    R411925  11.178   8.103   4.610 -0.2086  0.0422  0.0471
    1CHOL    R511926  10.974   8.180   4.623 -0.1977  0.0851 -0.0177
    1CHOL    C111927  11.140   8.389   4.895 -0.2347  0.0650  0.0208
    1CHOL    C211928  11.153   8.768   5.093  0.0392  0.1183  0.2711
    1CHOL   ROH11929  11.774  14.929   3.199 -0.1449  0.3274 -0.0524
    1CHOL    R111930  11.824  14.992   3.471 -0.0238  0.2823 -0.0623
    1CHOL    R211931  11.742  15.230   3.586 -0.0791  0.2170  0.0476
    1CHOL    R311932  11.624  15.064   3.767  0.1031  0.1075  0.0659
    1CHOL    R411933  11.658  15.318   3.909 -0.1577  0.1467  0.0459
    1CHOL    R511934  11.727  15.122   3.975  0.0497  0.2261  0.0553
    1CHOL    C111935  11.500  15.214   4.267 -0.0324  0.0030  0.0621
    1CHOL    C211936  11.517  15.599   4.402  0.3417  0.2227 -0.0632
    1CHOL   ROH11937  19.819   7.752   6.213  0.2165  0.1017 -0.0465
    1CHOL    R111938  19.754   7.763   5.937  0.1339  0.0758 -0.0285
    1CHOL    R211939  19.904   7.907   5.755  0.0469  0.1039 -0.0776
    1CHOL    R311940  19.915   7.669   5.625  0.0652  0.1014 -0.0718
    1CHOL    R411941  19.958   7.869   5.416  0.0237  0.1025 -0.0812
    1CHOL    R511942  19.808   7.711   5.415  0.0423  0.0837 -0.0645
    1CHOL    C111943  19.998   7.624   5.096  0.0271  0.0994 -0.0778
    1CHOL    C211944  20.007   7.762   4.734  0.0357  0.0639 -0.1083
    1CHOL   ROH11945   6.124  19.399   5.204 -0.1205  0.3010 -0.0926
    1CHOL    R111946   6.295  19.315   4.994 -0.1045  0.2428 -0.0574
    1CHOL    R211947   6.371  19.483   4.788 -0.0417  0.2050 -0.0699
    1CHOL    R311948   6.622  19.411   4.866 -0.0684  0.1681 -0.0195
    1CHOL    R411949   6.648  19.479   4.581 -0.0243  0.0266 -0.0439
    1CHOL    R511950   6.710  19.293   4.677 -0.0861  0.0555  0.0453
    1CHOL    C111951   7.044  19.409   4.533 -0.0392 -0.1119  0.0187
    1CHOL    C211952   7.238  19.293   4.345  0.0352  0.0271 -0.1987
    1CHOL   ROH11953  13.941  17.544   6.369 -0.1632  0.1720 -0.0148
    1CHOL    R111954  13.996  17.657   6.116  0.1265  0.0370 -0.0166
    1CHOL    R211955  14.147  17.526   5.924 -0.0750 -0.2887  0.0370
    1CHOL    R311956  13.929  17.572   5.768  0.0454  0.1234 -0.0216
    1CHOL    R411957  14.137  17.484   5.581 -0.0397 -0.1658  0.0206
    1CHOL    R511958  14.018  17.667   5.567  0.2666  0.0389  0.0364
    1CHOL    C111959  13.927  17.503   5.235  0.0940  0.2923 -0.0441
    1CHOL    C211960  14.290  17.403   5.075 -0.1584  0.3817 -0.0322
    1CHOL   ROH11961  18.181  20.822   6.412  0.0194  0.0301  0.2366
    1CHOL    R111962  18.039  20.864   6.171 -0.1348 -0.1451  0.2943
    1CHOL    R211963  18.165  20.914   5.931 -0.2909  0.3766  0.3044
    1CHOL    R311964  18.017  20.702   5.845  0.2364  0.0427  0.1722
    1CHOL    R411965  18.028  20.884   5.615 -0.4278  0.3493  0.3659
    1CHOL    R511966  17.848  20.800   5.706 -0.1448 -0.2656  0.4012
    1CHOL    C111967  17.810  20.668   5.351 -0.0126  0.0197  0.2774
    1CHOL    C211968  17.887  20.585   4.928 -0.3774 -0.0229 -0.0144
    1CHOL   ROH11969  11.045  15.519   3.172  0.1115  0.0629  0.0424
    1CHOL    R111970  10.893  15.613   3.392  0.0744  0.0961  0.0047
    1CHOL    R211971  10.680  15.472   3.497 -0.0797  0.2054 -0.1369
    1CHOL    R311972  10.818  15.500   3.730 -0.1589  0.0302 -0.0695
    1CHOL    R411973  10.536  15.473   3.811 -0.2209  0.3415 -0.2020
    1CHOL    R511974  10.673  15.633   3.867 -0.0688  0.1787 -0.1253
    1CHOL    C111975  10.581  15.499   4.213 -0.3774  0.2562 -0.1766
    1CHOL    C211976  10.608  15.302   4.530 -0.0252  0.2523 -0.0756
    1CHOL   ROH11977  19.071  16.476   3.154  0.2805 -0.4788  0.0443
    1CHOL    R111978  18.949  16.466   3.409  0.1851 -0.2143  0.0110
    1CHOL    R211979  18.950  16.238   3.566 -0.0325 -0.1054  0.1673
    1CHOL    R311980  19.057  16.405   3.751  0.0220 -0.0558  0.0935
    1CHOL    R411981  18.969  16.172   3.905 -0.0278  0.0186  0.1926
    1CHOL    R511982  18.917  16.380   3.943  0.0240  0.0517  0.1144
    1CHOL    C111983  19.081  16.291   4.276  0.0262  0.1372  0.1380
    1CHOL    C211984  19.043  16.287   4.658  0.0585  0.1189  0.1366
    1CHOL   ROH11985   8.027  16.769   3.288  0.0893 -0.1475  0.0215
    1CHOL    R111986   8.084  16.813   3.562  0.0913 -0.1234  0.0166
    1CHOL    R211987   8.333  16.765   3.671  0.1488  0.0829 -0.0262
    1CHOL    R311988   8.311  17.023   3.754 -0.0619  0.0573  0.0041
    1CHOL    R411989   8.442  16.885   3.977  0.2283  0.1690 -0.0871
    1CHOL    R511990   8.261  17.006   3.987  0.1058 -0.0135  0.0382
    1CHOL    C111991   8.484  17.197   4.232  0.0767  0.1953 -0.0941
    1CHOL    C211992   8.475  17.153   4.688  0.1821  0.0468  0.0398
    1CHOL   ROH11993  10.169   0.989   4.220 -0.1547 -0.0579  0.0511
    1CHOL    R111994  10.056   1.143   4.428  0.0747  0.0074  0.1303
    1CHOL    R211995   9.791   1.119   4.504  0.0263  0.3855  0.0933
    1CHOL    R311996   9.899   1.078   4.750 -0.0557  0.0715  0.0815
    1CHOL    R411997   9.623   1.161   4.804  0.0682  0.5190  0.0991
    1CHOL    R511998   9.803   1.250   4.887  0.2234  0.1721  0.1612
    1CHOL    C111999   9.627   1.146   5.209  0.0157  0.3021  0.0914
    1CHOL    C212000   9.437   1.088   5.414  0.1455  0.1131  0.2348
    1CHOL   ROH12001  12.024  15.787   3.210  0.0622  0.1243  0.0049
    1CHOL    R112002  11.890  15.813   3.458  0.0724  0.2287 -0.0000
    1CHOL    R212003  11.942  15.648   3.673 -0.1453  0.1103 -0.0339
    1CHOL    R312004  11.983  15.884   3.802  0.1334  0.0331  0.0244
    1CHOL    R412005  11.878  15.702   4.008 -0.1062  0.1133 -0.0270
    1CHOL    R512006  11.800  15.899   3.956  0.1388  0.2233  0.0121
    1CHOL    C112007  11.880  15.955   4.325  0.1782  0.0426  0.0317
    1CHOL    C212008  11.770  16.002   4.733  0.1660  0.1206 -0.0482
    1CHOL   ROH12009   5.996  27.380   3.715  0.3260 -0.2273  0.0540
    1CHOL    R112010   5.997  27.257   3.970  0.0556 -0.2091  0.0645
    1CHOL    R212011   6.058  27.395   4.201  0.1504 -0.2745  0.0681
    1CHOL    R312012   5.818  27.299   4.284 -0.0168  0.0564 -0.0065
    1CHOL    R412013   5.956  27.375   4.531  0.0940 -0.2731  0.0528
    1CHOL    R512014   5.868  27.181   4.487 -0.2100 -0.1258 -0.0537
    1CHOL    C112015   5.672  27.272   4.801 -0.0957  0.0384 -0.0262
    1CHOL    C212016   5.705  27.607   4.958 -0.4321 -0.1444  0.0601
    1CHOL   ROH12017  14.303   8.446   3.818  0.2331 -0.1532 -0.0313
    1CHOL    R112018  14.345   8.405   4.095  0.1276 -0.0340  0.0031
    1CHOL    R212019  14.587   8.459   4.218  0.0923 -0.0188  0.0647
    1CHOL    R312020  14.433   8.611   4.382  0.0595  0.0823 -0.0584
    1CHOL    R412021  14.693   8.598   4.516 -0.0709 -0.1509  0.1867
    1CHOL    R512022  14.500   8.548   4.603 -0.1980 -0.0079 -0.0016
    1CHOL    C112023  14.610   8.822   4.843 -0.1966 -0.1330  0.1423
    1CHOL    C212024  14.918   8.895   4.861  0.2797  0.0039 -0.2073
    1CHOL   ROH12025   3.178  15.471   2.904 -0.1322  0.0837 -0.1169
    1CHOL    R112026   3.285  15.640   3.104  0.0579  0.0282 -0.1695
    1CHOL    R212027   3.144  15.710   3.331  0.0990  0.3286 -0.2323
    1CHOL    R312028   3.363  15.613   3.458 -0.0612  0.0775 -0.1390
    1CHOL    R412029   3.204  15.738   3.670 -0.1626 -0.0331 -0.1496
    1CHOL    R512030   3.413  15.778   3.625 -0.0996 -0.1098  0.0626
    1CHOL    C112031   3.445  15.664   3.987 -0.4652 -0.4794 -0.0139
    1CHOL    C212032   3.354  15.831   4.295  0.0292 -0.2439 -0.1776
    1CHOL   ROH12033  12.044  16.600   2.923 -0.1548  0.0960  0.0151
    1CHOL    R112034  12.129  16.614   3.193 -0.0575  0.2553 -0.0231
    1CHOL    R212035  12.142  16.853   3.332 -0.3310  0.2979 -0.0684
    1CHOL    R312036  11.985  16.720   3.510 -0.0716  0.1025  0.0229
    1CHOL    R412037  12.152  16.894   3.675 -0.3008  0.4403 -0.0853
    1CHOL    R512038  12.127  16.679   3.697  0.0529  0.4010  0.0011
    1CHOL    C112039  12.010  16.793   4.041 -0.0396  0.3401 -0.0094
    1CHOL    C212040  12.010  16.860   4.365  0.2353 -0.1098 -0.0407
    1CHOL   ROH12041  18.004  14.376   6.524 -0.1497 -0.0434 -0.0807
    1CHOL    R112042  18.144  14.435   6.286 -0.2725  0.0714 -0.1242
    1CHOL    R212043  18.248  14.238   6.122  0.0186  0.1597 -0.0397
    1CHOL    R312044  18.103  14.366   5.931 -0.2079 -0.1579 -0.0912
    1CHOL    R412045  18.322  14.236   5.784  0.2316  0.4130  0.0010
    1CHOL    R512046  18.268  14.448   5.777 -0.3050  0.2974  0.0215
    1CHOL    C112047  18.230  14.355   5.408  0.1431  0.2623 -0.0236
    1CHOL    C212048  18.238  14.061   5.116 -0.2241 -0.2095 -0.2012
    1CHOL   ROH12049  23.227  18.070   3.256 -0.0479  0.0120  0.1233
    1CHOL    R112050  23.377  18.062   3.496 -0.0595  0.0490  0.1322
    1CHOL    R212051  23.348  17.860   3.682 -0.0044  0.0294  0.1213
    1CHOL    R312052  23.617  17.837   3.650  0.0049  0.1197  0.1347
    1CHOL    R412053  23.559  17.696   3.901  0.0296  0.0321  0.0902
    1CHOL    R512054  23.705  17.856   3.872 -0.0168  0.0839  0.1458
    1CHOL    C112055  23.935  17.578   3.998  0.0580  0.1186  0.0847
    1CHOL    C212056  24.314  17.415   4.032 -0.1576 -0.0647  0.3802
    1CHOL   ROH12057   7.857  28.848   6.461 -0.1707  0.0388  0.0158
    1CHOL    R112058   7.876  28.691   6.226 -0.1046  0.0204  0.0337
    1CHOL    R212059   7.734  28.749   5.997 -0.1510 -0.0826  0.0374
    1CHOL    R312060   7.980  28.745   5.881 -0.1562  0.0324  0.0197
    1CHOL    R412061   7.792  28.714   5.658 -0.1576 -0.1464  0.0425
    1CHOL    R512062   7.960  28.583   5.705 -0.0734 -0.0323  0.0681
    1CHOL    C112063   8.057  28.689   5.352 -0.1664 -0.0755  0.0288
    1CHOL    C212064   7.802  28.559   5.112 -0.1163 -0.0166 -0.0463
    1CHOL   ROH12065  17.192  15.045   3.017 -0.2197 -0.1508 -0.1419
    1CHOL    R112066  17.265  14.917   3.259 -0.2800 -0.2078 -0.1545
    1CHOL    R212067  17.384  15.053   3.468 -0.0215 -0.3255 -0.2267
    1CHOL    R312068  17.178  14.948   3.611 -0.0959 -0.0449 -0.1198
    1CHOL    R412069  17.354  15.067   3.812 -0.0221  0.0652 -0.2380
    1CHOL    R512070  17.280  14.862   3.810 -0.1532  0.1016 -0.0216
    1CHOL    C112071  17.142  14.977   4.146 -0.0924  0.5561 -0.1442
    1CHOL    C212072  17.264  15.035   4.545 -0.1260  0.1934  0.1650
    1CHOL   ROH12073  14.375   6.188   7.161 -0.1228 -0.0824 -0.1343
    1CHOL    R112074  14.374   6.049   6.914 -0.1754 -0.0622 -0.1466
    1CHOL    R212075  14.141   5.993   6.776 -0.2024  0.0090 -0.1387
    1CHOL    R312076  14.271   6.118   6.572 -0.1811 -0.0045 -0.1321
    1CHOL    R412077  14.118   5.902   6.444 -0.0297 -0.1128 -0.1179
    1CHOL    R512078  14.332   5.940   6.424 -0.0426 -0.0237 -0.0482
    1CHOL    C112079  14.226   5.966   6.058  0.0910 -0.1963 -0.0997
    1CHOL    C212080  13.927   5.863   5.798  0.1612  0.0507 -0.2438
    1CHOL   ROH12081  13.334  28.063   5.153  0.1908  0.2246 -0.0635
    1CHOL    R112082  13.432  28.019   5.414  0.0381  0.0476 -0.0335
    1CHOL    R212083  13.277  27.908   5.615 -0.1020 -0.0267 -0.1769
    1CHOL    R312084  13.483  27.732   5.633 -0.1598 -0.0933 -0.1699
    1CHOL    R412085  13.434  27.817   5.909  0.0218  0.1045 -0.2015
    1CHOL    R512086  13.625  27.823   5.803 -0.0335 -0.0373 -0.3054
    1CHOL    C112087  13.718  27.599   6.098  0.0397  0.1188 -0.2091
    1CHOL    C212088  13.960  27.751   6.290 -0.1751  0.0249 -0.3601
    1CHOL   ROH12089  15.019  17.541   6.772  0.1593  0.0252  0.0586
    1CHOL    R112090  14.936  17.522   6.503 -0.0802  0.3170  0.1076
    1CHOL    R212091  14.943  17.736   6.328  0.4069  0.3465  0.1629
    1CHOL    R312092  15.088  17.565   6.175 -0.1649 -0.0373  0.0143
    1CHOL    R412093  14.987  17.767   5.987  0.5526  0.5528  0.1975
    1CHOL    R512094  14.965  17.551   5.970 -0.2189  0.6124 -0.0265
    1CHOL    C112095  15.149  17.625   5.644  0.1003  0.3127  0.0782
    1CHOL    C212096  15.260  17.551   5.314  0.0933  0.2274 -0.0168
    1CHOL   ROH12097  12.885  26.504   4.395 -0.0362 -0.2011  0.2071
    1CHOL    R112098  13.078  26.516   4.602 -0.0396 -0.0104  0.2019
    1CHOL    R212099  13.142  26.750   4.733 -0.1830  0.0757  0.1210
    1CHOL    R312100  13.082  26.605   4.954 -0.0903  0.1141  0.1716
    1CHOL    R412101  13.279  26.802   5.046 -0.1251  0.1948  0.0764
    1CHOL    R512102  13.290  26.586   5.071 -0.0572  0.2039  0.1287
    1CHOL    C112103  13.302  26.695   5.436 -0.0044  0.3003  0.0981
    1CHOL    C212104  13.199  26.726   5.751  0.1074 -0.0451  0.1619
    1CHOL   ROH12105  18.391  27.219   4.237  0.1942 -0.1779 -0.2020
    1CHOL    R112106  18.474  27.244   4.506  0.0119  0.0142 -0.1617
    1CHOL    R212107  18.423  27.051   4.696  0.0727  0.0497 -0.1087
    1CHOL    R312108  18.692  27.063   4.735  0.0421  0.3074  0.0483
    1CHOL    R412109  18.576  27.072   5.005 -0.1226 -0.0409 -0.0037
    1CHOL    R512110  18.718  27.214   4.919 -0.2236  0.1858  0.1923
    1CHOL    C112111  18.918  27.095   5.221 -0.2651  0.1480  0.2048
    1CHOL    C212112  19.133  27.316   5.240  0.2233 -0.1431 -0.0211
    1CHOL   ROH12113   8.714  22.501   2.701 -0.1723  0.2056  0.0750
    1CHOL    R112114   8.930  22.623   2.838  0.0066  0.0539 -0.0619
    1CHOL    R212115   8.896  22.764   3.075  0.2344  0.2253 -0.1130
    1CHOL    R312116   9.085  22.591   3.165  0.0746  0.0600 -0.0977
    1CHOL    R412117   9.086  22.806   3.361  0.2054 -0.0047 -0.0600
    1CHOL    R512118   9.258  22.729   3.254  0.1623 -0.1128 -0.0223
    1CHOL    C112119   9.374  22.669   3.611  0.0384 -0.2939 -0.0148
    1CHOL    C212120   9.309  22.489   3.987 -0.0931  0.0423  0.2450
    1CHOL   ROH12121   3.949  19.056   5.356 -0.0730 -0.1020  0.0454
    1CHOL    R112122   3.980  19.237   5.140 -0.3169  0.0612  0.1413
    1CHOL    R212123   4.138  19.180   4.920  0.0568  0.5308  0.2657
    1CHOL    R312124   3.910  19.236   4.783  0.0287 -0.0024  0.0714
    1CHOL    R412125   4.126  19.339   4.614 -0.0695  0.7342  0.3747
    1CHOL    R512126   3.951  19.450   4.684 -0.4635  0.2008  0.2803
    1CHOL    C112127   3.905  19.485   4.307 -0.1693  0.3521  0.2557
    1CHOL    C212128   3.677  19.827   4.211  0.0525 -0.1591 -0.0628
    1CHOL   ROH12129  27.747  12.094   4.471 -0.0175 -0.1299 -0.1778
    1CHOL    R112130  27.553  12.266   4.582  0.0284  0.0184 -0.3239
    1CHOL    R212131  27.334  12.356   4.439 -0.1541 -0.3609 -0.2920
    1CHOL    R312132  27.195  12.253   4.648  0.0964 -0.0008  0.0684
    1CHOL    R412133  27.032  12.478   4.555 -0.0802 -0.2384 -0.2245
    1CHOL    R512134  27.102  12.444   4.758  0.1431  0.1944 -0.2157
    1CHOL    C112135  26.726  12.451   4.820  0.1980  0.1712  0.1531
    1CHOL    C212136  26.486  12.727   4.901 -0.1662  0.0464 -0.0583
    1CHOL   ROH12137  22.891  19.047   3.613 -0.1051 -0.0535 -0.0305
    1CHOL    R112138  23.059  18.885   3.774 -0.1851 -0.0010  0.1071
    1CHOL    R212139  23.333  18.924   3.790 -0.1519 -0.1778  0.0023
    1CHOL    R312140  23.283  18.937   4.057 -0.0868  0.1476  0.0034
    1CHOL    R412141  23.552  18.827   4.039 -0.2137 -0.1764  0.0576
    1CHOL    R512142  23.385  18.741   4.147 -0.2915  0.1198  0.1800
    1CHOL    C112143  23.632  18.782   4.434 -0.1886  0.1299  0.0909
    1CHOL    C212144  23.743  18.704   4.734 -0.2353  0.3260 -0.0661
    1CHOL   ROH12145  13.407  13.864   2.876 -0.2274  0.2555 -0.0666
    1CHOL    R112146  13.472  13.795   3.143 -0.1597  0.0481 -0.1344
    1CHOL    R212147  13.602  13.969   3.314 -0.0779 -0.0979 -0.0430
    1CHOL    R312148  13.389  13.919   3.475 -0.0403 -0.1794 -0.0190
    1CHOL    R412149  13.616  13.955   3.659 -0.0474 -0.0453 -0.0422
    1CHOL    R512150  13.480  13.784   3.652  0.0362 -0.1107 -0.0078
    1CHOL    C112151  13.424  13.899   4.011  0.0056 -0.0912 -0.0191
    1CHOL    C212152  13.588  13.716   4.177 -0.0003 -0.2922  0.1789
    1CHOL   ROH12153  15.258   9.431   6.834 -0.3707 -0.0796 -0.1424
    1CHOL    R112154  15.372   9.494   6.582 -0.2685  0.0375 -0.0689
    1CHOL    R212155  15.604   9.376   6.490 -0.2046  0.1132 -0.0124
    1CHOL    R312156  15.449   9.315   6.275 -0.1000  0.1682 -0.1037
    1CHOL    R412157  15.724   9.297   6.175 -0.0395 -0.1137  0.1053
    1CHOL    R512158  15.562   9.415   6.089  0.1271 -0.0029 -0.0606
    1CHOL    C112159  15.649   9.194   5.791  0.1549 -0.1942  0.0881
    1CHOL    C212160  15.762   9.015   5.527  0.1134  0.1143  0.1045
    1CHOL   ROH12161  10.785  14.046   3.183  0.0711 -0.0995 -0.0894
    1CHOL    R112162  10.734  14.166   3.435  0.1281  0.0166 -0.1312
    1CHOL    R212163  10.608  14.032   3.641 -0.1123  0.2073 -0.1398
    1CHOL    R312164  10.829  14.106   3.780 -0.0631 -0.0338 -0.0880
    1CHOL    R412165  10.650  13.996   3.983 -0.2190  0.1693 -0.1313
    1CHOL    R512166  10.745  14.191   3.987 -0.0091  0.0597 -0.1108
    1CHOL    C112167  10.882  14.045   4.312 -0.2348 -0.0791 -0.0777
    1CHOL    C212168  10.916  14.047   4.719 -0.2005  0.1627 -0.0655
    1CHOL   ROH12169   4.709  13.949   5.483 -0.0835  0.1304 -0.2031
    1CHOL    R112170   4.949  13.896   5.343 -0.0879  0.0995 -0.1981
    1CHOL    R212171   5.098  13.667   5.385 -0.0484  0.1465 -0.0958
    1CHOL    R312172   5.072  13.640   5.116 -0.0651  0.0046 -0.0812
    1CHOL    R412173   5.318  13.494   5.182 -0.1076 -0.0413 -0.0030
    1CHOL    R512174   5.297  13.652   5.033 -0.0600 -0.1147 -0.0928
    1CHOL    C112175   5.422  13.368   4.811 -0.1577 -0.2839  0.0646
    1CHOL    C212176   5.626  13.021   4.682 -0.3363 -0.2366 -0.0029
    1CHOL   ROH12177  19.295  19.347   3.778  0.0964 -0.1590  0.0059
    1CHOL    R112178  19.384  19.421   4.036  0.0847 -0.1123 -0.0039
    1CHOL    R212179  19.211  19.498   4.237  0.0727 -0.1249 -0.0117
    1CHOL    R312180  19.337  19.302   4.377  0.1134 -0.0829  0.0109
    1CHOL    R412181  19.315  19.525   4.566 -0.1019 -0.1284  0.0452
    1CHOL    R512182  19.497  19.419   4.512 -0.0150 -0.0184  0.1117
    1CHOL    C112183  19.494  19.357   4.888 -0.1658 -0.0910  0.0996
    1CHOL    C212184  19.796  19.319   5.052  0.2269  0.3745  0.0681
    1CHOL   ROH12185  14.996  21.062   6.319  0.0631 -0.0452  0.1343
    1CHOL    R112186  14.988  20.864   6.117  0.0728  0.0522  0.0365
    1CHOL    R212187  14.943  20.924   5.851  0.0907  0.1824  0.0611
    1CHOL    R312188  15.175  20.787   5.814  0.0908  0.1968  0.0102
    1CHOL    R412189  15.072  20.831   5.544 -0.1642 -0.1362  0.0452
    1CHOL    R512190  15.129  20.640   5.631 -0.0417 -0.0253  0.2148
    1CHOL    C112191  15.364  20.649   5.331 -0.3125 -0.3080 -0.0119
    1CHOL    C212192  15.582  20.759   5.073  0.0590  0.1409  0.1447
    1CHOL   ROH12193  15.249   9.760   3.310  0.0248 -0.1492 -0.0224
    1CHOL    R112194  15.179   9.691   3.575 -0.0668 -0.0336 -0.0174
    1CHOL    R212195  15.365   9.609   3.762 -0.1519 -0.0762  0.0402
    1CHOL    R312196  15.259   9.811   3.909 -0.0751  0.0209 -0.0330
    1CHOL    R412197  15.459   9.689   4.085 -0.1715 -0.0542  0.0418
    1CHOL    R512198  15.250   9.724   4.132 -0.1697  0.0735 -0.0107
    1CHOL    C112199  15.414   9.926   4.411 -0.1107  0.0498 -0.0260
    1CHOL    C212200  15.256   9.992   4.808 -0.2294 -0.2403 -0.1192
    1CHOL   ROH12201  10.164  13.355   3.124 -0.1455  0.1564  0.0217
    1CHOL    R112202  10.116  13.342   3.403 -0.0904  0.1312  0.0310
    1CHOL    R212203  10.085  13.567   3.559 -0.1081  0.1196  0.0518
    1CHOL    R312204   9.852  13.447   3.631 -0.0697  0.0656  0.0834
    1CHOL    R412205   9.912  13.631   3.852 -0.1205  0.1191  0.0437
    1CHOL    R512206   9.871  13.417   3.868 -0.0569  0.1146  0.0852
    1CHOL    C112207   9.592  13.554   4.089 -0.0917  0.0681  0.0687
    1CHOL    C212208   9.474  13.406   4.502  0.2402  0.2232  0.1640
    1CHOL   ROH12209   6.294  27.088   5.492 -0.0102  0.1103 -0.0736
    1CHOL    R112210   6.488  26.969   5.322  0.0550 -0.0532  0.1108
    1CHOL    R212211   6.628  27.113   5.133 -0.1585 -0.2989 -0.2508
    1CHOL    R312212   6.844  27.007   5.260 -0.0036  0.1926 -0.0852
    1CHOL    R412213   6.915  27.003   4.975 -0.2262 -0.6315 -0.1492
    1CHOL    R512214   6.920  26.834   5.113 -0.0316 -0.2252  0.3707
    1CHOL    C112215   7.285  26.840   5.001 -0.1203 -0.3639  0.0656
    1CHOL    C212216   7.545  26.607   4.906 -0.1640 -0.0696  0.2754
    1CHOL   ROH12217  18.123  12.555   6.459 -0.0814 -0.2860  0.0407
    1CHOL    R112218  18.258  12.525   6.211 -0.1295 -0.3049  0.0172
    1CHOL    R212219  18.186  12.335   6.024 -0.3370 -0.1431 -0.0667
    1CHOL    R312220  18.172  12.550   5.859 -0.1311 -0.0494  0.0325
    1CHOL    R412221  18.217  12.322   5.680 -0.1903  0.0039 -0.0607
    1CHOL    R512222  18.334  12.505   5.689 -0.0787 -0.0677  0.0832
    1CHOL    C112223  18.221  12.517   5.325  0.0885  0.1774  0.0360
    1CHOL    C212224  18.016  12.484   5.043  0.0157 -0.3443  0.1883
    1CHOL   ROH12225   8.767  12.716   3.252 -0.0981  0.1999  0.0288
    1CHOL    R112226   8.794  12.510   3.444 -0.2644  0.0387 -0.1172
    1CHOL    R212227   8.943  12.540   3.675  0.0197 -0.3470 -0.2378
    1CHOL    R312228   8.711  12.463   3.795 -0.0051 -0.0154 -0.0614
    1CHOL    R412229   8.915  12.429   4.001  0.1205 -0.3715 -0.2376
    1CHOL    R512230   8.774  12.278   3.934 -0.1714 -0.1428 -0.1533
    1CHOL    C112231   8.682  12.292   4.304  0.1558 -0.0742 -0.0719
    1CHOL    C212232   8.349  12.226   4.513  0.1866  0.2238  0.0760
    1CHOL   ROH12233  15.126   6.767   4.181  0.1006 -0.0978  0.0801
    1CHOL    R112234  15.250   6.805   4.433  0.1141 -0.1312  0.0793
    1CHOL    R212235  15.157   6.988   4.618  0.2296 -0.0245  0.0381
    1CHOL    R312236  15.155   6.771   4.783  0.0680  0.0085  0.0804
    1CHOL    R412237  15.225   6.996   4.957  0.2060 -0.0082  0.0418
    1CHOL    R512238  15.336   6.810   4.934  0.0802 -0.0873  0.0880
    1CHOL    C112239  15.263   6.798   5.309  0.0406  0.0322  0.0837
    1CHOL    C212240  15.390   6.668   5.614 -0.0856 -0.3103  0.1278
    1CHOL   ROH12241  15.650  17.030   3.279 -0.0473 -0.1918 -0.0941
    1CHOL    R112242  15.763  17.074   3.535 -0.2539  0.0764 -0.0430
    1CHOL    R212243  15.610  17.082   3.765 -0.3938 -0.1693 -0.1155
    1CHOL    R312244  15.785  16.891   3.849 -0.0630  0.1714 -0.0019
    1CHOL    R412245  15.639  16.970   4.091 -0.5026 -0.2399 -0.1302
    1CHOL    R512246  15.856  16.966   4.065 -0.4592  0.2416  0.1058
    1CHOL    C112247  15.819  16.726   4.360 -0.2553  0.0390 -0.0321
    1CHOL    C212248  15.855  16.436   4.692 -0.2141  0.2207 -0.0223
    1CHOL   ROH12249  21.478  12.330   6.329  0.0828  0.1923 -0.1835
    1CHOL    R112250  21.428  12.363   6.053  0.0796  0.0391 -0.2027
    1CHOL    R212251  21.429  12.152   5.874  0.0008 -0.0733 -0.0745
    1CHOL    R312252  21.181  12.245   5.813  0.0278 -0.0284 -0.1159
    1CHOL    R412253  21.270  12.106   5.571 -0.0149 -0.1573 -0.0536
    1CHOL    R512254  21.197  12.310   5.583  0.0450 -0.1327 -0.1433
    1CHOL    C112255  20.944  12.166   5.337  0.0015 -0.1643 -0.0803
    1CHOL    C212256  20.936  12.321   4.949  0.0858 -0.2858  0.0517
    1CHOL   ROH12257  17.839  12.310   2.896  0.1024 -0.0527 -0.1031
    1CHOL    R112258  17.969  12.337   3.146  0.0502 -0.1515 -0.0641
    1CHOL    R212259  17.928  12.555   3.312  0.2666 -0.0508 -0.1363
    1CHOL    R312260  17.868  12.363   3.495 -0.0452  0.0700 -0.1068
    1CHOL    R412261  17.955  12.593   3.654  0.3329 -0.0455 -0.1423
    1CHOL    R512262  18.033  12.390   3.666  0.0033 -0.1750 -0.1136
    1CHOL    C112263  17.914  12.435   4.025  0.0788  0.0709 -0.1181
    1CHOL    C212264  17.975  12.351   4.488  0.1211  0.0382  0.2649
    1CHOL   ROH12265  22.850  15.718   5.522 -0.0659  0.1072 -0.0164
    1CHOL    R112266  22.776  15.717   5.249 -0.0715  0.0887 -0.0154
    1CHOL    R212267  22.767  15.947   5.096 -0.0189  0.0720 -0.0476
    1CHOL    R312268  22.932  15.806   4.933 -0.0553  0.0095 -0.0297
    1CHOL    R412269  22.809  16.008   4.759 -0.0993 -0.0617 -0.0819
    1CHOL    R512270  22.812  15.793   4.725 -0.1037 -0.0751  0.0036
    1CHOL    C112271  22.989  15.911   4.409 -0.1806 -0.1984 -0.0852
    1CHOL    C212272  23.078  16.049   4.008  0.1460 -0.0057  0.2320
    1CHOL   ROH12273  25.706  11.916   5.174 -0.1860  0.0728 -0.0136
    1CHOL    R112274  25.958  11.819   5.087 -0.1667  0.2255 -0.1330
    1CHOL    R212275  26.024  11.551   5.093  0.1019  0.2895  0.1047
    1CHOL    R312276  26.079  11.592   4.830 -0.1812  0.0610  0.0052
    1CHOL    R412277  26.271  11.388   4.915  0.0166  0.2580  0.0146
    1CHOL    R512278  26.317  11.576   4.816 -0.1870  0.1850 -0.2189
    1CHOL    C112279  26.466  11.332   4.564 -0.2989  0.0252 -0.1313
    1CHOL    C212280  26.752  11.088   4.763 -0.2974  0.1850  0.1277
    1CHOL   ROH12281  19.103   4.931   6.213  0.2350  0.1307  0.0600
    1CHOL    R112282  19.051   4.875   5.941  0.0625  0.1251  0.0931
    1CHOL    R212283  18.949   5.064   5.767  0.1501  0.1842  0.1045
    1CHOL    R312284  19.167   4.999   5.619  0.0277 -0.0365  0.0179
    1CHOL    R412285  18.999   5.158   5.438  0.1079  0.1169  0.0788
    1CHOL    R512286  19.079   4.959   5.399 -0.1007  0.0355  0.0556
    1CHOL    C112287  19.233   5.150   5.107 -0.0313 -0.1295 -0.0174
    1CHOL    C212288  19.117   5.032   4.649  0.1574  0.2758 -0.3540
    1CHOL   ROH12289  17.108  14.095   4.834  0.0704  0.1765  0.1670
    1CHOL    R112290  17.310  14.009   4.655 -0.0185  0.1268  0.0888
    1CHOL    R212291  17.579  14.017   4.719  0.0205  0.2076 -0.0721
    1CHOL    R312292  17.569  13.754   4.651  0.0259  0.1725  0.0620
    1CHOL    R412293  17.855  13.817   4.662  0.0203  0.2431 -0.1965
    1CHOL    R512294  17.749  13.726   4.495 -0.0922  0.1387 -0.0679
    1CHOL    C112295  18.007  13.454   4.565  0.0254  0.2309 -0.1430
    1CHOL    C212296  18.224  13.256   4.666 -0.1294 -0.2397 -0.1121
    1CHOL   ROH12297  11.840  11.742   6.613  0.0048  0.3047 -0.3205
    1CHOL    R112298  11.942  11.663   6.361 -0.0591  0.1952 -0.3133
    1CHOL    R212299  12.038  11.408   6.312  0.1197  0.2297 -0.1664
    1CHOL    R312300  11.859  11.415   6.107  0.0070 -0.0664 -0.0838
    1CHOL    R412301  12.103  11.306   5.988  0.0607  0.1257 -0.1457
    1CHOL    R512302  11.989  11.477   5.916 -0.1545 -0.0309 -0.1823
    1CHOL    C112303  11.973  11.254   5.607 -0.0795 -0.2129 -0.0560
    1CHOL    C212304  12.045  11.182   5.229 -0.0675  0.0381 -0.0046
    1CHOL   ROH12305   7.652  21.715   4.474  0.1189 -0.0757 -0.0203
    1CHOL    R112306   7.817  21.790   4.257  0.0566 -0.1316 -0.0865
    1CHOL    R212307   7.907  21.609   4.069 -0.0432 -0.1690 -0.0949
    1CHOL    R312308   7.795  21.784   3.894 -0.0699 -0.1695 -0.0794
    1CHOL    R412309   8.037  21.688   3.759 -0.0570 -0.1327 -0.0920
    1CHOL    R512310   7.981  21.896   3.794 -0.0827 -0.1392 -0.0747
    1CHOL    C112311   8.007  21.899   3.413 -0.0901 -0.1119 -0.0757
    1CHOL    C212312   8.191  22.085   3.117  0.0704 -0.0807 -0.0027
    1CHOL   ROH12313  11.133  19.831   3.068 -0.1134 -0.1459  0.0452
    1CHOL    R112314  11.059  19.767   3.333 -0.0815 -0.0617  0.0742
    1CHOL    R212315  11.229  19.802   3.548 -0.0613  0.0184  0.0432
    1CHOL    R312316  11.022  19.947   3.648 -0.0579  0.0402  0.0200
    1CHOL    R412317  11.195  19.894   3.879 -0.2103 -0.1914  0.0882
    1CHOL    R512318  10.981  19.850   3.864 -0.2230 -0.0909 -0.0654
    1CHOL    C112319  10.980  20.083   4.167 -0.2937 -0.2933  0.0926
    1CHOL    C212320  11.290  19.952   4.405 -0.1557  0.0565  0.0061
    1CHOL   ROH12321  22.926  17.725   3.194 -0.2605  0.1938  0.1451
    1CHOL    R112322  23.051  17.665   3.440 -0.0860  0.1751  0.0532
    1CHOL    R212323  22.920  17.685   3.683  0.0336 -0.0043  0.1342
    1CHOL    R312324  23.000  17.427   3.711  0.2145  0.0341 -0.0095
    1CHOL    R412325  23.010  17.538   3.982 -0.0479 -0.1564  0.0848
    1CHOL    R512326  23.172  17.436   3.877  0.1013  0.0453  0.1097
    1CHOL    C112327  23.139  17.209   4.182  0.0743 -0.2089 -0.0788
    1CHOL    C212328  23.078  16.987   4.518 -0.1547 -0.2139  0.0244
    1CHOL   ROH12329  11.777   7.653   6.698 -0.0119 -0.2818 -0.0064
    1CHOL    R112330  11.755   7.736   6.428 -0.1425 -0.1193  0.0529
    1CHOL    R212331  11.968   7.841   6.286 -0.2231  0.0149  0.0277
    1CHOL    R312332  11.906   7.643   6.110 -0.2542  0.1084 -0.0680
    1CHOL    R412333  12.102   7.808   5.969 -0.2873  0.1790 -0.0179
    1CHOL    R512334  11.905   7.751   5.897 -0.2970  0.2173 -0.0107
    1CHOL    C112335  12.121   7.604   5.619 -0.3539  0.3622 -0.1343
    1CHOL    C212336  11.985   7.722   5.221 -0.0923 -0.0935  0.0422
    1CHOL   ROH12337  10.478  16.990   2.882  0.3670  0.0594  0.0563
    1CHOL    R112338  10.380  16.876   3.122  0.1175  0.1387 -0.0044
    1CHOL    R212339  10.546  16.757   3.308 -0.1039 -0.0457  0.0794
    1CHOL    R312340  10.426  16.931   3.479 -0.0222  0.0647  0.0255
    1CHOL    R412341  10.635  16.801   3.639 -0.0500  0.0536  0.0521
    1CHOL    R512342  10.423  16.816   3.689 -0.0392  0.1485  0.0715
    1CHOL    C112343  10.573  16.991   3.992  0.0581  0.2151 -0.0145
    1CHOL    C212344  10.624  16.966   4.398  0.0361 -0.0764 -0.0957
    1CHOL   ROH12345  15.994   7.704   6.895 -0.0211 -0.2257  0.0548
    1CHOL    R112346  16.045   7.521   6.686 -0.0080 -0.1390 -0.0178
    1CHOL    R212347  15.843   7.397   6.544  0.0017 -0.1602 -0.0086
    1CHOL    R312348  15.975   7.500   6.329 -0.0853 -0.0468 -0.0091
    1CHOL    R412349  15.832   7.266   6.224  0.0228 -0.1083 -0.0312
    1CHOL    R512350  16.046   7.308   6.205  0.0006  0.0116 -0.0556
    1CHOL    C112351  15.949   7.286   5.837 -0.0467  0.0284 -0.0448
    1CHOL    C212352  15.578   7.178   5.697  0.3304  0.0528  0.2921
    1CHOL   ROH12353  12.264  14.078   3.214 -0.1958  0.1861 -0.0564
    1CHOL    R112354  12.292  14.078   3.496 -0.1983  0.0761 -0.0539
    1CHOL    R212355  12.502  14.202   3.625 -0.0446 -0.2035 -0.0112
    1CHOL    R312356  12.303  14.328   3.760  0.0952 -0.0038  0.0097
    1CHOL    R412357  12.506  14.271   3.963 -0.0287 -0.3790  0.0238
    1CHOL    R512358  12.296  14.217   3.972 -0.1017 -0.0993 -0.0503
    1CHOL    C112359  12.321  14.430   4.288  0.1118 -0.2937  0.0637
    1CHOL    C212360  12.209  14.626   4.685 -0.0244 -0.1021 -0.0330
    1CHOL   ROH12361   1.885  13.721   5.643 -0.5183 -0.1563 -0.0229
    1CHOL    R112362   1.971  13.833   5.397 -0.4956  0.0088  0.0598
    1CHOL    R212363   2.126  13.692   5.217 -0.1739  0.2556  0.1443
    1CHOL    R312364   1.927  13.759   5.044 -0.1424  0.0148  0.0093
    1CHOL    R412365   2.165  13.732   4.875  0.0157  0.2760  0.1663
    1CHOL    R512366   2.031  13.904   4.885 -0.1959  0.1298  0.0707
    1CHOL    C112367   2.000  13.817   4.515  0.1558  0.0619  0.0524
    1CHOL    C212368   2.026  13.582   4.182 -0.1800 -0.2054  0.0773
    1CHOL   ROH12369  10.752  17.729   6.492  0.1074  0.0305 -0.0357
    1CHOL    R112370  10.876  17.660   6.247  0.0233  0.0576 -0.0883
    1CHOL    R212371  10.803  17.436   6.102 -0.0015  0.0442 -0.0734
    1CHOL    R312372  10.772  17.617   5.901 -0.1120  0.0551 -0.0447
    1CHOL    R412373  10.898  17.386   5.773  0.0459  0.1837 -0.0804
    1CHOL    R512374  10.969  17.592   5.767 -0.0981  0.2219 -0.0418
    1CHOL    C112375  10.925  17.527   5.394 -0.0303  0.2750 -0.0576
    1CHOL    C212376  11.063  17.624   5.014  0.0716 -0.0996 -0.2147
    1CHOL   ROH12377   5.564  15.332   2.893  0.0092  0.0495  0.0257
    1CHOL    R112378   5.476  15.274   3.156  0.0523  0.0952  0.0502
    1CHOL    R212379   5.355  15.463   3.317 -0.1534  0.0571 -0.0574
    1CHOL    R312380   5.159  15.275   3.334  0.0364 -0.1385  0.0279
    1CHOL    R412381   5.125  15.439   3.574 -0.2560  0.0702 -0.1471
    1CHOL    R512382   5.146  15.223   3.567 -0.0202  0.0800  0.0773
    1CHOL    C112383   4.807  15.250   3.740 -0.1376 -0.1057 -0.1194
    1CHOL    C212384   4.452  15.386   3.886 -0.0867  0.1691  0.2578
    1CHOL   ROH12385  10.569   9.134   3.780 -0.2956  0.2953  0.0645
    1CHOL    R112386  10.458   9.201   4.032 -0.2441  0.1111  0.1378
    1CHOL    R212387  10.465   9.029   4.248  0.0224  0.0495  0.0815
    1CHOL    R312388  10.581   9.242   4.372 -0.1245  0.1234  0.0944
    1CHOL    R412389  10.535   9.048   4.586  0.1416  0.0119  0.0594
    1CHOL    R512390  10.470   9.256   4.583 -0.0548 -0.0436  0.1453
    1CHOL    C112391  10.684   9.259   4.899  0.0731  0.0594  0.0587
    1CHOL    C212392  10.866   9.199   5.237 -0.2673 -0.0926  0.0770
    1CHOL   ROH12393   8.804   3.003   6.600  0.0291  0.0214  0.1642
    1CHOL    R112394   8.860   2.951   6.327 -0.1387  0.1771  0.0978
    1CHOL    R212395   8.979   2.716   6.242  0.1303  0.3671 -0.0691
    1CHOL    R312396   8.761   2.704   6.079 -0.0044  0.0961  0.1246
    1CHOL    R412397   8.964   2.542   5.944  0.0660  0.3239 -0.0411
    1CHOL    R512398   8.852   2.707   5.858 -0.2076  0.1848  0.0420
    1CHOL    C112399   8.751   2.428   5.618 -0.0978  0.0444  0.1570
    1CHOL    C212400   8.886   2.310   5.287 -0.2411 -0.1922  0.1930
    1CHOL   ROH12401   9.153  17.994   3.027 -0.2658 -0.1461 -0.0762
    1CHOL    R112402   8.973  17.906   3.227 -0.1121 -0.1328  0.0723
    1CHOL    R212403   9.055  17.839   3.483  0.0534  0.1381  0.1030
    1CHOL    R312404   8.867  18.021   3.556 -0.0609  0.0519  0.0231
    1CHOL    R412405   8.868  17.824   3.773  0.1011  0.1966  0.1357
    1CHOL    R512406   8.695  17.890   3.660  0.0442  0.0063  0.1267
    1CHOL    C112407   8.583  17.986   4.012  0.0217  0.1493  0.0797
    1CHOL    C212408   8.442  18.123   4.359 -0.2210 -0.1131  0.1455
    1CHOL   ROH12409   1.015  25.254   6.069 -0.0606 -0.2195 -0.0757
    1CHOL    R112410   0.900  25.426   5.877 -0.1030 -0.1535  0.0087
    1CHOL    R212411   0.917  25.379   5.605 -0.1383 -0.0454 -0.0110
    1CHOL    R312412   0.647  25.401   5.616 -0.1391 -0.0712  0.0346
    1CHOL    R412413   0.716  25.465   5.338 -0.1539  0.3366  0.1165
    1CHOL    R512414   0.596  25.587   5.474 -0.1527  0.1385  0.3038
    1CHOL    C112415   0.344  25.535   5.192 -0.1638  0.5351  0.2336
    1CHOL    C212416   0.084  25.358   4.906  0.2385  0.3866 -0.1146
    1CHOL   ROH12417  21.112  18.925   3.310  0.0082  0.0384  0.0749
    1CHOL    R112418  21.277  18.900   3.538  0.0444  0.1689  0.0627
    1CHOL    R212419  21.303  19.100   3.727 -0.2117  0.1340  0.1298
    1CHOL    R312420  21.232  18.902   3.899  0.0465 -0.0192  0.0670
    1CHOL    R412421  21.416  19.071   4.052 -0.3352  0.3175  0.1912
    1CHOL    R512422  21.433  18.856   4.022  0.0748  0.3360  0.1739
    1CHOL    C112423  21.416  18.869   4.403 -0.1652  0.2803  0.1680
    1CHOL    C212424  21.475  18.655   4.733 -0.0193  0.0061  0.0426
    1CHOL   ROH12425  12.001  17.862   6.536  0.0451 -0.0236 -0.0801
    1CHOL    R112426  11.885  17.848   6.278  0.0563 -0.2045 -0.0758
    1CHOL    R212427  11.998  17.970   6.057 -0.0886 -0.1106 -0.0973
    1CHOL    R312428  11.982  17.720   5.952  0.2008 -0.1508 -0.0554
    1CHOL    R412429  12.068  17.889   5.728 -0.1963 -0.0413 -0.1382
    1CHOL    R512430  11.897  17.754   5.730 -0.0050 -0.2935 -0.0034
    1CHOL    C112431  12.094  17.607   5.438  0.0128 -0.0385 -0.1226
    1CHOL    C212432  12.127  17.712   5.108  0.0962  0.2850  0.1359
    1CHOL   ROH12433  25.445   9.600   5.894 -0.0021  0.1504  0.0852
    1CHOL    R112434  25.465   9.500   5.630 -0.0127  0.0464  0.1236
    1CHOL    R212435  25.351   9.628   5.414 -0.1276 -0.1020  0.0929
    1CHOL    R312436  25.604   9.614   5.314 -0.1417 -0.0183  0.0433
    1CHOL    R412437  25.429   9.572   5.082 -0.1679  0.0569  0.0549
    1CHOL    R512438  25.592   9.442   5.147 -0.1382  0.0546 -0.0304
    1CHOL    C112439  25.712   9.525   4.795 -0.2047  0.2281 -0.0138
    1CHOL    C212440  25.499   9.730   4.479 -0.0485  0.2182 -0.1650
    1CHOL   ROH12441   7.780  25.975   5.072  0.0295  0.0194  0.3434
    1CHOL    R112442   8.013  25.814   5.075  0.0793  0.0889  0.2400
    1CHOL    R212443   8.132  25.720   4.844  0.0047  0.1247  0.1869
    1CHOL    R312444   8.353  25.840   4.948  0.0163  0.1900  0.0888
    1CHOL    R412445   8.457  25.657   4.745 -0.0104  0.1079  0.1478
    1CHOL    R512446   8.518  25.667   4.953  0.0320  0.2057  0.1318
    1CHOL    C112447   8.853  25.732   4.784 -0.0081  0.1592  0.0328
    1CHOL    C212448   9.119  25.844   4.639 -0.1846 -0.0328  0.0784
    1CHOL   ROH12449   7.269  12.456   6.173  0.0966 -0.2317  0.0184
    1CHOL    R112450   7.217  12.382   5.905 -0.1364 -0.1968  0.0523
    1CHOL    R212451   7.417  12.355   5.716 -0.3074 -0.0852 -0.1485
    1CHOL    R312452   7.308  12.108   5.684 -0.2483 -0.1194 -0.0923
    1CHOL    R412453   7.508  12.129   5.471 -0.3267 -0.0771 -0.1637
    1CHOL    R512454   7.298  12.078   5.447 -0.3217 -0.1393 -0.0875
    1CHOL    C112455   7.459  11.765   5.298 -0.2824 -0.1043 -0.1199
    1CHOL    C212456   7.616  11.833   4.856  0.1708 -0.1130  0.0542
    1CHOL   ROH12457  21.860   3.255   5.698  0.5771 -0.1133 -0.2086
    1CHOL    R112458  21.811   3.454   5.503  0.2702 -0.0875 -0.1105
    1CHOL    R212459  21.930   3.450   5.253  0.1489  0.1305 -0.1761
    1CHOL    R312460  21.673   3.465   5.167  0.0851 -0.1040 -0.0354
    1CHOL    R412461  21.834   3.505   4.926 -0.0832  0.2604 -0.0887
    1CHOL    R512462  21.676   3.636   4.999 -0.2000  0.0241  0.0854
    1CHOL    C112463  21.537   3.552   4.654 -0.2781  0.1159  0.0943
    1CHOL    C212464  21.632   3.634   4.331 -0.1445  0.0092 -0.2614
    1CHOL   ROH12465  22.854  29.109   4.290  0.0741 -0.1360 -0.1240
    1CHOL    R112466  23.132  29.164   4.302  0.0374  0.0245  0.0052
    1CHOL    R212467  23.265  29.207   4.540 -0.0720 -0.0511  0.0764
    1CHOL    R312468  23.426  29.008   4.448  0.0845  0.1068  0.0010
    1CHOL    R412469  23.606  29.192   4.590 -0.1292 -0.0520  0.5142
    1CHOL    R512470  23.628  29.121   4.385  0.1566  0.2445  0.4289
    1CHOL    C112471  23.957  28.997   4.533 -0.0153  0.0955  0.6984
    1CHOL    C212472  24.347  28.978   4.372 -0.2224 -0.3476 -0.0572
    1CHOL   ROH12473  25.601  23.778   5.852  0.3733 -0.1998 -0.0044
    1CHOL    R112474  25.522  23.820   5.584  0.0351 -0.0797  0.1074
    1CHOL    R212475  25.403  24.054   5.498  0.0157  0.0079  0.3355
    1CHOL    R312476  25.605  24.053   5.316 -0.2132 -0.0279  0.0774
    1CHOL    R412477  25.452  24.295   5.255 -0.0560  0.1530  0.4644
    1CHOL    R512478  25.505  24.137   5.116 -0.3775  0.2257  0.2695
    1CHOL    C112479  25.671  24.434   4.943 -0.3125  0.2039  0.2971
    1CHOL    C212480  25.610  24.539   4.564 -0.3893 -0.3742 -0.1859
    1CHOL   ROH12481  14.740   7.396   7.266 -0.1523 -0.0727 -0.0749
    1CHOL    R112482  14.842   7.219   7.070 -0.0684 -0.0980 -0.0094
    1CHOL    R212483  14.678   7.082   6.894  0.0104 -0.0692 -0.1063
    1CHOL    R312484  14.838   7.196   6.707  0.1483 -0.1062 -0.0122
    1CHOL    R412485  14.779   6.928   6.602  0.0712 -0.0607 -0.0896
    1CHOL    R512486  14.977   7.016   6.630  0.1003 -0.1564  0.0169
    1CHOL    C112487  14.989   6.946   6.255  0.2361 -0.0904  0.0084
    1CHOL    C212488  14.991   6.896   5.791  0.1651  0.4060 -0.1262
    1CHOL   ROH12489  18.349  11.171   6.498 -0.1875 -0.1769  0.0442
    1CHOL    R112490  18.142  11.202   6.308 -0.0498 -0.0698 -0.0918
    1CHOL    R212491  18.167  11.365   6.086  0.1460 -0.0116 -0.0330
    1CHOL    R312492  18.097  11.139   5.952  0.1813  0.0418 -0.1413
    1CHOL    R412493  18.000  11.358   5.783  0.0775  0.1010  0.0017
    1CHOL    R512494  17.884  11.189   5.857  0.1461  0.0281 -0.0643
    1CHOL    C112495  17.838  11.141   5.482  0.0712  0.2167 -0.0798
    1CHOL    C212496  17.723  10.990   5.232 -0.1685  0.2035  0.1266
    1CHOL   ROH12497  16.532  19.082   3.355  0.0482 -0.2947 -0.0631
    1CHOL    R112498  16.399  19.181   3.585  0.0895 -0.2010 -0.0795
    1CHOL    R212499  16.278  19.015   3.769  0.0873 -0.1220 -0.0137
    1CHOL    R312500  16.435  19.149   3.946  0.1245 -0.0884 -0.0716
    1CHOL    R412501  16.243  19.003   4.113 -0.0564  0.1924 -0.0137
    1CHOL    R512502  16.285  19.217   4.119  0.1036  0.1737 -0.1831
    1CHOL    C112503  16.371  19.122   4.479 -0.1052  0.4070 -0.0680
    1CHOL    C212504  16.296  19.208   4.919  0.0620  0.1754  0.1140
    1CHOL   ROH12505   9.453   9.114   3.551  0.0221 -0.1297  0.0049
    1CHOL    R112506   9.513   9.023   3.813  0.0381 -0.1126  0.0071
    1CHOL    R212507   9.567   9.196   4.021  0.0101 -0.0983  0.0018
    1CHOL    R312508   9.368   9.058   4.144  0.0339 -0.1278  0.0073
    1CHOL    R412509   9.488   9.220   4.357  0.0221 -0.1114  0.0054
    1CHOL    R512510   9.457   9.004   4.360  0.0520 -0.1175  0.0037
    1CHOL    C112511   9.256   9.104   4.668  0.0516 -0.1469  0.0127
    1CHOL    C212512   9.174   9.093   4.999 -0.0445  0.0085 -0.2550
    1CHOL   ROH12513  10.652  13.583   3.277  0.0525  0.1548  0.1218
    1CHOL    R112514  10.548  13.512   3.530 -0.0783  0.0566  0.0413
    1CHOL    R212515  10.657  13.603   3.766 -0.1470 -0.1034  0.1343
    1CHOL    R312516  10.402  13.685   3.815 -0.1406 -0.0443  0.0719
    1CHOL    R412517  10.508  13.605   4.078 -0.2600 -0.1791  0.0818
    1CHOL    R512518  10.323  13.534   3.984 -0.2489 -0.0871 -0.0144
    1CHOL    C112519  10.182  13.683   4.305 -0.3198 -0.1675 -0.0074
    1CHOL    C212520   9.861  13.736   4.459 -0.3487 -0.3038 -0.3540
    1CHOL   ROH12521  24.968   3.983   5.081  0.1648 -0.1702  0.1934
    1CHOL    R112522  25.103   3.785   4.930  0.0760 -0.1876  0.1363
    1CHOL    R212523  25.008   3.527   4.905 -0.1188 -0.1008 -0.0604
    1CHOL    R312524  25.030   3.579   4.639  0.0412  0.0424 -0.0213
    1CHOL    R412525  25.110   3.298   4.666 -0.2302 -0.0526 -0.1547
    1CHOL    R512526  25.224   3.457   4.570 -0.0410 -0.0968 -0.0113
    1CHOL    C112527  25.189   3.215   4.277 -0.1453  0.1100 -0.1730
    1CHOL    C212528  25.390   3.024   3.981  0.0013 -0.2256  0.1027
    1CHOL   ROH12529  12.799   7.848   3.899 -0.1859  0.0266  0.0731
    1CHOL    R112530  12.750   7.902   4.172 -0.2846 -0.0810  0.0772
    1CHOL    R212531  12.582   7.745   4.327 -0.1008 -0.3265  0.0349
    1CHOL    R312532  12.800   7.729   4.489 -0.0925 -0.0708  0.0538
    1CHOL    R412533  12.576   7.638   4.655  0.0015 -0.3804  0.0195
    1CHOL    R512534  12.719   7.796   4.704 -0.2016 -0.2019  0.0551
    1CHOL    C112535  12.777   7.561   4.999  0.0688 -0.1717  0.0284
    1CHOL    C212536  12.473   7.784   5.099  0.1323 -0.1027 -0.0790
    1CHOL   ROH12537   1.682  21.147   5.319  0.3222 -0.2318  0.0866
    1CHOL    R112538   1.468  20.994   5.215  0.2021 -0.1947  0.2736
    1CHOL    R212539   1.466  20.897   4.956 -0.2016  0.1066  0.1505
    1CHOL    R312540   1.424  20.659   5.081  0.1141 -0.0584 -0.0455
    1CHOL    R412541   1.261  20.645   4.839 -0.2388  0.1260  0.1754
    1CHOL    R512542   1.193  20.611   5.042  0.0797 -0.1384  0.2450
    1CHOL    C112543   1.102  20.275   4.887  0.0359 -0.0176  0.0060
    1CHOL    C212544   0.963  19.994   4.945 -0.4784 -0.0214 -0.0746
    1CHOL   ROH12545   8.596  15.345   3.016  0.2560  0.4670 -0.1285
    1CHOL    R112546   8.614  15.476   3.266 -0.0685  0.2292  0.0279
    1CHOL    R212547   8.442  15.420   3.476 -0.0758 -0.2866 -0.0959
    1CHOL    R312548   8.674  15.378   3.611 -0.0577 -0.0540 -0.0525
    1CHOL    R412549   8.464  15.345   3.813 -0.0654 -0.3616 -0.1137
    1CHOL    R512550   8.637  15.477   3.826 -0.2242 -0.1625 -0.0327
    1CHOL    C112551   8.694  15.262   4.136 -0.0424 -0.1868 -0.0834
    1CHOL    C212552   8.733  14.957   4.214 -0.2164  0.1880  0.2129
    1CHOL   ROH12553   8.240  20.343   3.042  0.2901 -0.2396 -0.0178
    1CHOL    R112554   8.155  20.521   3.246  0.1896 -0.1378 -0.1475
    1CHOL    R212555   8.068  20.433   3.493  0.0662 -0.0146 -0.1481
    1CHOL    R312556   8.258  20.604   3.585  0.0206  0.0303 -0.1347
    1CHOL    R412557   8.093  20.544   3.819  0.0146 -0.0083 -0.1457
    1CHOL    R512558   8.143  20.742   3.743 -0.0250  0.0046 -0.1435
    1CHOL    C112559   8.286  20.769   4.095 -0.0583  0.0372 -0.1318
    1CHOL    C212560   8.546  20.952   4.225  0.1203  0.3208 -0.1477
    1CHOL   ROH12561  27.815  28.658   5.937 -0.0724 -0.0478  0.0013
    1CHOL    R112562  27.694  28.624   5.683  0.0440  0.0772 -0.0734
    1CHOL    R212563  27.577  28.833   5.545  0.0898  0.1457 -0.0194
    1CHOL    R312564  27.745  28.753   5.347  0.1897  0.2612  0.0188
    1CHOL    R412565  27.524  28.886   5.207  0.0549 -0.0364 -0.0427
    1CHOL    R512566  27.599  28.685   5.169  0.2789  0.0360  0.0335
    1CHOL    C112567  27.651  28.842   4.825  0.1283 -0.0340 -0.0204
    1CHOL    C212568  27.437  29.124   4.697  0.3653 -0.0506 -0.1640
    1CHOL   ROH12569  15.705  20.566   3.459  0.2005 -0.0800  0.0964
    1CHOL    R112570  15.649  20.475   3.721  0.2556 -0.1472  0.0850
    1CHOL    R212571  15.836  20.343   3.876  0.4022  0.1171  0.1399
    1CHOL    R312572  15.778  20.538   4.056  0.0816  0.0482  0.1173
    1CHOL    R412573  15.832  20.300   4.219  0.1795  0.0820  0.1347
    1CHOL    R512574  15.654  20.425   4.227  0.0534 -0.0839  0.0121
    1CHOL    C112575  15.775  20.458   4.588 -0.2509 -0.0029  0.1104
    1CHOL    C212576  15.746  20.229   5.025 -0.1523 -0.1385  0.0066
    1CHOL   ROH12577   9.115  11.011   3.488  0.0288  0.0234 -0.0267
    1CHOL    R112578   9.117  11.067   3.766 -0.0425 -0.0086 -0.0203
    1CHOL    R212579   8.898  11.022   3.928 -0.0397 -0.1491 -0.0593
    1CHOL    R312580   9.077  10.878   4.074  0.0182 -0.0671 -0.0470
    1CHOL    R412581   8.906  11.010   4.273 -0.0490 -0.1285 -0.0577
    1CHOL    R512582   9.124  11.017   4.263 -0.0486 -0.0353 -0.0507
    1CHOL    C112583   9.079  10.867   4.612 -0.0001 -0.0396 -0.0452
    1CHOL    C212584   8.889  10.749   4.961 -0.1224  0.0465  0.1071
    1CHOL   ROH12585  25.534  22.833   5.980 -0.2982  0.1634  0.0318
    1CHOL    R112586  25.443  22.772   5.719 -0.0724  0.2677 -0.0725
    1CHOL    R212587  25.560  22.878   5.492  0.3146  0.1269  0.0594
    1CHOL    R312588  25.582  22.617   5.420  0.0879  0.0980  0.0853
    1CHOL    R412589  25.633  22.768   5.173  0.2813  0.0422  0.0800
    1CHOL    R512590  25.486  22.609   5.201  0.1226  0.1754  0.0623
    1CHOL    C112591  25.695  22.458   4.920  0.0490 -0.0341  0.1164
    1CHOL    C212592  26.010  22.273   4.719  0.1869  0.2179  0.1439
    1CHOL   ROH12593   0.641  22.792   4.544  0.2115  0.0223 -0.0318
    1CHOL    R112594   0.608  22.523   4.464  0.0605  0.0549 -0.0826
    1CHOL    R212595   0.790  22.325   4.527  0.0056 -0.0394 -0.2114
    1CHOL    R312596   0.570  22.200   4.628 -0.0034  0.0311 -0.1436
    1CHOL    R412597   0.758  21.983   4.566  0.0420 -0.0079  0.1200
    1CHOL    R512598   0.551  22.000   4.499  0.0573 -0.1021  0.0493
    1CHOL    C112599   0.533  21.667   4.684  0.0548  0.0765  0.3767
    1CHOL    C212600   0.759  21.413   4.532 -0.0633  0.0712  0.1098
    1CHOL   ROH12601   6.951  16.477   4.635 -0.0027  0.0565 -0.0352
    1CHOL    R112602   7.134  16.262   4.632 -0.1078 -0.0334 -0.0357
    1CHOL    R212603   7.280  16.187   4.855 -0.1041 -0.0688 -0.0520
    1CHOL    R312604   7.171  15.944   4.805 -0.2305 -0.0257  0.0064
    1CHOL    R412605   7.339  15.902   5.041 -0.2156 -0.0645 -0.0090
    1CHOL    R512606   7.345  15.788   4.855 -0.2970 -0.1019  0.0089
    1CHOL    C112607   7.270  15.507   5.101 -0.3991 -0.0220  0.0710
    1CHOL    C212608   7.265  15.229   5.357 -0.1548 -0.2556 -0.1378
    1CHOL   ROH12609   9.756  14.276   2.838 -0.0203  0.1785 -0.0266
    1CHOL    R112610   9.880  14.385   3.068  0.0543  0.1829 -0.0694
    1CHOL    R212611   9.755  14.572   3.230  0.1014  0.1728 -0.0256
    1CHOL    R312612   9.814  14.393   3.426  0.1808  0.1760 -0.0450
    1CHOL    R412613   9.714  14.628   3.568 -0.2409  0.0017 -0.0340
    1CHOL    R512614   9.903  14.526   3.603 -0.1298  0.2332  0.0756
    1CHOL    C112615   9.744  14.493   3.949 -0.3655 -0.0950 -0.0571
    1CHOL    C212616   9.647  14.799   4.210  0.2708 -0.0789 -0.1762
    1CHOL   ROH12617  20.104  14.520   2.919 -0.3770  0.0437  0.0338
    1CHOL    R112618  20.101  14.626   3.182 -0.2082 -0.0463  0.0740
    1CHOL    R212619  19.924  14.538   3.375 -0.0966 -0.0993  0.1532
    1CHOL    R312620  20.151  14.499   3.519 -0.0105 -0.1667  0.0005
    1CHOL    R412621  19.934  14.459   3.711  0.1089  0.1623  0.2119
    1CHOL    R512622  20.104  14.594   3.733  0.2389  0.0451 -0.0334
    1CHOL    C112623  20.153  14.376   4.042  0.3094  0.2512  0.1026
    1CHOL    C212624  20.091  14.412   4.450  0.0316 -0.0340 -0.1675
    1CHOL   ROH12625   8.839  16.786   6.106  0.1271 -0.3626  0.0474
    1CHOL    R112626   8.901  16.971   5.901 -0.0625 -0.2674  0.0743
    1CHOL    R212627   9.132  16.955   5.750  0.0031  0.0463  0.1340
    1CHOL    R312628   8.957  16.958   5.542  0.0505 -0.1742  0.0884
    1CHOL    R412629   9.215  16.886   5.422  0.1601  0.0810  0.1657
    1CHOL    R512630   9.084  17.049   5.360  0.0008 -0.0678  0.1064
    1CHOL    C112631   9.100  16.849   5.035  0.2960 -0.1059  0.1414
    1CHOL    C212632   9.335  16.940   4.729 -0.0982  0.1195  0.1502
    1CHOL   ROH12633  16.278  27.108   6.755 -0.0313  0.0680  0.1023
    1CHOL    R112634  16.227  27.248   6.514 -0.0707 -0.1145  0.0021
    1CHOL    R212635  16.372  27.470   6.438 -0.2399 -0.0229 -0.0732
    1CHOL    R312636  16.412  27.326   6.210 -0.0282 -0.1253  0.0270
    1CHOL    R412637  16.527  27.590   6.152 -0.2196 -0.0750 -0.0836
    1CHOL    R512638  16.378  27.484   6.033 -0.0813 -0.2641 -0.0820
    1CHOL    C112639  16.653  27.524   5.773 -0.0090 -0.2019  0.0043
    1CHOL    C212640  16.616  27.888   5.672  0.0732 -0.1423 -0.4412
    1CHOL   ROH12641   4.006  24.691   5.740 -0.0610  0.2166 -0.0256
    1CHOL    R112642   4.148  24.870   5.573 -0.1849  0.3000 -0.0422
    1CHOL    R212643   4.319  24.783   5.374  0.0681  0.3956  0.1316
    1CHOL    R312644   4.164  24.942   5.217 -0.0401  0.0912 -0.0806
    1CHOL    R412645   4.357  24.821   5.033  0.0849  0.0222  0.0880
    1CHOL    R512646   4.317  25.034   5.056 -0.0886  0.0244 -0.1675
    1CHOL    C112647   4.234  24.992   4.686 -0.0070 -0.4808 -0.1365
    1CHOL    C212648   4.007  24.918   4.340  0.0379 -0.1113 -0.3269
    1CHOL   ROH12649   3.879  18.118   5.315 -0.1138  0.0833  0.0179
    1CHOL    R112650   3.721  18.123   5.080 -0.0136 -0.0126 -0.0508
    1CHOL    R212651   3.756  18.311   4.881 -0.0406  0.0048 -0.0280
    1CHOL    R312652   3.778  18.091   4.722  0.1576  0.0221 -0.0299
    1CHOL    R412653   3.667  18.300   4.547 -0.2154 -0.1079  0.0196
    1CHOL    R512654   3.584  18.101   4.581  0.0559 -0.2257  0.0764
    1CHOL    C112655   3.636  18.088   4.204 -0.1310 -0.1574  0.0454
    1CHOL    C212656   3.604  17.865   3.910 -0.1253  0.1025 -0.1257
    1CHOL   ROH12657  14.415  21.852   2.994  0.0640 -0.0198  0.0155
    1CHOL    R112658  14.526  21.970   3.226 -0.0812  0.0273  0.0617
    1CHOL    R212659  14.429  21.920   3.480 -0.0298 -0.1819  0.0405
    1CHOL    R312660  14.687  21.854   3.531  0.0500  0.1050  0.0229
    1CHOL    R412661  14.548  21.811   3.785  0.0644 -0.2581 -0.0228
    1CHOL    R512662  14.726  21.933   3.754 -0.0808 -0.0076  0.0880
    1CHOL    C112663  14.861  21.686   4.011  0.1942 -0.0330 -0.0761
    1CHOL    C212664  14.700  21.772   4.342 -0.0939 -0.1655  0.0812
    1CHOL   ROH12665  14.025  12.977   2.892  0.0759  0.1576 -0.1699
    1CHOL    R112666  14.195  12.998   3.118  0.0548  0.1172 -0.1509
    1CHOL    R212667  14.180  13.209   3.296  0.0140  0.0653 -0.0960
    1CHOL    R312668  14.154  13.010   3.479  0.0257  0.0130 -0.1502
    1CHOL    R412669  14.279  13.230   3.627 -0.0834  0.0199 -0.0629
    1CHOL    R512670  14.352  13.025   3.613 -0.0144  0.0447 -0.0918
    1CHOL    C112671  14.312  13.055   3.991 -0.1293 -0.0556 -0.0946
    1CHOL    C212672  14.323  13.041   4.382  0.1957 -0.0250  0.0803
    1CHOL   ROH12673   7.518   4.464   6.669 -0.1361  0.0358 -0.0194
    1CHOL    R112674   7.469   4.643   6.455  0.0303  0.0700 -0.0301
    1CHOL    R212675   7.633   4.660   6.234  0.0052 -0.1517 -0.0646
    1CHOL    R312676   7.401   4.618   6.098 -0.0760  0.1067 -0.0139
    1CHOL    R412677   7.601   4.672   5.890  0.0189 -0.4070 -0.0765
    1CHOL    R512678   7.409   4.773   5.916  0.1792 -0.0627 -0.1565
    1CHOL    C112679   7.364   4.638   5.563 -0.0495 -0.3132 -0.0359
    1CHOL    C212680   7.017   4.609   5.284 -0.1653  0.3183 -0.1720
    1CHOL   ROH12681   6.445  15.150   4.576  0.0977  0.0793 -0.1820
    1CHOL    R112682   6.221  15.188   4.408  0.0691  0.0276 -0.1547
    1CHOL    R212683   5.961  15.151   4.496  0.0870  0.0538 -0.0987
    1CHOL    R312684   5.928  15.404   4.403  0.0672  0.0256 -0.1718
    1CHOL    R412685   5.660  15.319   4.487  0.0985  0.0820  0.0000
    1CHOL    R512686   5.716  15.399   4.292  0.0064  0.0072 -0.0603
    1CHOL    C112687   5.453  15.655   4.394  0.0867  0.0719 -0.0111
    1CHOL    C212688   5.305  15.964   4.273  0.2783  0.2397  0.2253
    1CHOL   ROH12689   0.659  11.167   5.383 -0.0906  0.1427 -0.1441
    1CHOL    R112690   0.520  11.048   5.167 -0.0371  0.0319 -0.1164
    1CHOL    R212691   0.650  10.935   4.951  0.0127 -0.0243 -0.0505
    1CHOL    R312692   0.501  10.717   5.016  0.0451 -0.0315  0.0058
    1CHOL    R412693   0.483  10.736   4.723 -0.2237  0.0914  0.0177
    1CHOL    R512694   0.316  10.725   4.863 -0.0998  0.0582  0.1753
    1CHOL    C112695   0.245  10.415   4.652 -0.3309  0.1520  0.1102
    1CHOL    C212696   0.489  10.327   4.376 -0.0923  0.1294 -0.0292
    1CHOL   ROH12697   9.121   8.163   3.953 -0.0160  0.1655 -0.0661
    1CHOL    R112698   9.201   8.057   4.203 -0.1737  0.1259 -0.0302
    1CHOL    R212699   9.457   8.090   4.304 -0.0946 -0.2773 -0.0692
    1CHOL    R312700   9.324   8.190   4.519  0.0924  0.0492 -0.1008
    1CHOL    R412701   9.577   8.091   4.628 -0.0308 -0.2421 -0.0937
    1CHOL    R512702   9.377   8.040   4.697 -0.0886  0.0877 -0.0175
    1CHOL    C112703   9.523   8.185   5.018  0.1818  0.0850 -0.1376
    1CHOL    C212704   9.485   8.301   5.362 -0.0703  0.0593  0.0814
    1CHOL   ROH12705  14.926   3.178   4.293 -0.0088 -0.0322  0.0335
    1CHOL    R112706  15.037   3.328   4.505  0.1302 -0.0169 -0.0479
    1CHOL    R212707  14.925   3.335   4.758  0.1282  0.2303 -0.0466
    1CHOL    R312708  15.174   3.258   4.835  0.0566  0.0329 -0.0084
    1CHOL    R412709  15.044   3.348   5.082  0.1139  0.1655 -0.0391
    1CHOL    R512710  15.235   3.417   5.004  0.1752 -0.0044 -0.0228
    1CHOL    C112711  15.347   3.284   5.344  0.0383 -0.0575  0.0010
    1CHOL    C212712  15.170   3.290   5.741  0.1222 -0.3503  0.1009
    1CHOL   ROH12713  20.064  14.044   2.963 -0.0201 -0.2618  0.0299
    1CHOL    R112714  20.093  14.089   3.241  0.2065 -0.1923 -0.0023
    1CHOL    R212715  19.879  14.086   3.416  0.2785  0.2831  0.1141
    1CHOL    R312716  20.031  13.903   3.547  0.0099  0.0504  0.1083
    1CHOL    R412717  19.835  13.993   3.745  0.2612  0.4853  0.1694
    1CHOL    R512718  20.051  13.991   3.769  0.2748  0.0990  0.0665
    1CHOL    C112719  19.952  13.767   4.061 -0.0009  0.3847  0.1963
    1CHOL    C212720  20.093  13.919   4.351  0.0310 -0.0581 -0.0400
    1CHOL   ROH12721  17.288  11.393   6.479 -0.1153  0.1724  0.0218
    1CHOL    R112722  17.190  11.325   6.222 -0.2092  0.2542  0.0376
    1CHOL    R212723  17.142  11.514   6.027  0.2276  0.2646 -0.0560
    1CHOL    R312724  17.305  11.355   5.878 -0.0758 -0.1554  0.0385
    1CHOL    R412725  17.125  11.482   5.683  0.4043  0.4233 -0.0823
    1CHOL    R512726  17.162  11.268   5.707 -0.2035  0.2881 -0.1049
    1CHOL    C112727  17.269  11.314   5.343  0.2225  0.1216 -0.0090
    1CHOL    C212728  17.230  11.025   5.068 -0.0388 -0.3641 -0.2167
    1CHOL   ROH12729  16.534  10.501   6.489  0.0585  0.0068  0.0651
    1CHOL    R112730  16.599  10.541   6.216  0.0347 -0.0685  0.0483
    1CHOL    R212731  16.647  10.333   6.042 -0.0609 -0.1185  0.0831
    1CHOL    R312732  16.454  10.455   5.894 -0.0395 -0.0816  0.0849
    1CHOL    R412733  16.598  10.285   5.703  0.0131 -0.0043  0.0554
    1CHOL    R512734  16.560  10.499   5.684  0.0011 -0.0000  0.1216
    1CHOL    C112735  16.389  10.372   5.367  0.0762  0.0969  0.0409
    1CHOL    C212736  16.430  10.291   5.062 -0.1172 -0.0642 -0.0711
    1CHOL   ROH12737  19.580   8.700   6.623  0.3100 -0.1123 -0.2275
    1CHOL    R112738  19.587   8.632   6.348  0.0250 -0.0708 -0.2464
    1CHOL    R212739  19.363   8.552   6.209 -0.1697  0.2131 -0.0889
    1CHOL    R312740  19.434   8.754   6.041 -0.0678  0.1602 -0.1140
    1CHOL    R412741  19.281   8.567   5.874 -0.0355  0.1270 -0.1283
    1CHOL    R512742  19.482   8.644   5.834  0.0013  0.0875 -0.0677
    1CHOL    C112743  19.300   8.766   5.521  0.1381  0.0271 -0.1748
    1CHOL    C212744  19.088   8.677   5.193 -0.2000  0.3082  0.1926
    1CHOL   ROH12745  12.281  11.289   3.357 -0.0452  0.1182  0.0406
    1CHOL    R112746  12.162  11.230   3.607 -0.0265  0.0967  0.0446
    1CHOL    R212747  12.309  11.154   3.828 -0.0026  0.1550  0.0495
    1CHOL    R312748  12.178  11.361   3.946 -0.0658  0.1224  0.0365
    1CHOL    R412749  12.285  11.203   4.169  0.0325  0.2003  0.0454
    1CHOL    R512750  12.077  11.264   4.141  0.0037  0.1136  0.0682
    1CHOL    C112751  12.148  11.426   4.479 -0.0064  0.1960  0.0308
    1CHOL    C212752  12.167  11.523   4.854 -0.1287  0.0428  0.1940
    1CHOL   ROH12753  10.541  21.069   5.209  0.1201  0.0903  0.0166
    1CHOL    R112754  10.598  20.794   5.240  0.0800  0.0947  0.1281
    1CHOL    R212755  10.749  20.652   5.057 -0.1321 -0.0524  0.0667
    1CHOL    R312756  10.896  20.588   5.277  0.0658  0.0423 -0.0347
    1CHOL    R412757  10.951  20.373   5.086 -0.1793 -0.0906  0.0360
    1CHOL    R512758  10.882  20.350   5.291  0.0122  0.0524  0.1222
    1CHOL    C112759  11.207  20.152   5.309 -0.0210 -0.0242 -0.0771
    1CHOL    C212760  11.243  19.914   5.030 -0.4144 -0.0932  0.2722
    1CHOL   ROH12761   8.817  13.608   6.400  0.0276 -0.0306  0.0427
    1CHOL    R112762   8.986  13.630   6.174 -0.0309  0.1279  0.0126
    1CHOL    R212763   9.028  13.421   5.998  0.3432  0.0745  0.1517
    1CHOL    R312764   8.949  13.603   5.813 -0.0209 -0.1929  0.0340
    1CHOL    R412765   9.077  13.390   5.658  0.4955  0.0050  0.1794
    1CHOL    R512766   9.124  13.602   5.650  0.0247  0.1140  0.0805
    1CHOL    C112767   9.031  13.543   5.285  0.2423 -0.2865  0.0852
    1CHOL    C212768   9.043  13.544   4.922 -0.1254  0.0809  0.0673
    1CHOL   ROH12769  14.377  15.130   6.666  0.0372 -0.1353 -0.2245
    1CHOL    R112770  14.384  15.229   6.401  0.1445 -0.0754 -0.1990
    1CHOL    R212771  14.616  15.320   6.281  0.2327 -0.2628 -0.1590
    1CHOL    R312772  14.549  15.140   6.089  0.0791 -0.1502 -0.2152
    1CHOL    R412773  14.667  15.364   5.942  0.1902 -0.1491 -0.1516
    1CHOL    R512774  14.472  15.274   5.906  0.1184 -0.0204 -0.1457
    1CHOL    C112775  14.634  15.221   5.564  0.0213  0.0229 -0.2000
    1CHOL    C212776  14.636  15.204   5.173 -0.0453 -0.0861 -0.0688
    1CHOL   ROH12777  13.408  12.873   6.686 -0.1549  0.0870  0.0547
    1CHOL    R112778  13.557  12.828   6.450 -0.1256 -0.0638  0.0985
    1CHOL    R212779  13.508  12.615   6.280 -0.2894 -0.0228  0.0786
    1CHOL    R312780  13.488  12.811   6.093 -0.0415  0.0050  0.0813
    1CHOL    R412781  13.494  12.563   5.939 -0.2198  0.0236  0.0701
    1CHOL    R512782  13.624  12.735   5.912 -0.0548 -0.1022  0.1248
    1CHOL    C112783  13.468  12.717   5.564  0.0536  0.0766  0.0678
    1CHOL    C212784  13.656  12.798   5.100  0.2012  0.0457  0.0699
    1CHOL   ROH12785  29.248  26.487   3.428 -0.1576  0.1830 -0.1641
    1CHOL    R112786  29.096  26.463   3.666 -0.1150  0.2130 -0.1330
    1CHOL    R212787  29.125  26.250   3.839 -0.1451  0.1893 -0.1542
    1CHOL    R312788  29.164  26.446   4.023 -0.0425  0.1638 -0.1492
    1CHOL    R412789  29.001  26.246   4.162 -0.0648  0.2011 -0.1237
    1CHOL    R512790  28.957  26.458   4.143 -0.0081  0.2146 -0.0960
    1CHOL    C112791  28.967  26.428   4.523  0.0783  0.1839 -0.1012
    1CHOL    C212792  28.625  26.458   4.626 -0.0218  0.2285 -0.0678
    1CHOL   ROH12793  17.688  16.325   6.512 -0.0830  0.2180 -0.0645
    1CHOL    R112794  17.821  16.240   6.277 -0.2028  0.0818 -0.0848
    1CHOL    R212795  17.694  16.222   6.033 -0.2614  0.2012 -0.0651
    1CHOL    R312796  17.898  16.382   5.951 -0.1160  0.0013 -0.0996
    1CHOL    R412797  17.760  16.303   5.704 -0.1535  0.0285 -0.0864
    1CHOL    R512798  17.973  16.281   5.747 -0.1760 -0.1350 -0.0549
    1CHOL    C112799  17.991  16.500   5.435  0.0456 -0.2598 -0.1313
    1CHOL    C212800  17.973  16.539   5.028  0.5694 -0.2071  0.4093
    1CHOL   ROH12801  16.252  11.610   6.641 -0.0163  0.1421  0.0497
    1CHOL    R112802  16.327  11.579   6.370  0.0397  0.1756  0.0615
    1CHOL    R212803  16.168  11.446   6.186  0.1606  0.0423  0.0546
    1CHOL    R312804  16.194  11.678   6.046  0.0045  0.0499  0.0365
    1CHOL    R412805  16.116  11.477   5.846  0.1472 -0.0243  0.0501
    1CHOL    R512806  16.289  11.610   5.837  0.0581  0.0961  0.0441
    1CHOL    C112807  16.110  11.712   5.516 -0.0071 -0.0559  0.0306
    1CHOL    C212808  16.108  11.415   5.246  0.2508  0.0281  0.0923
    1CHOL   ROH12809  11.242  16.724   6.681 -0.1146 -0.0317 -0.0343
    1CHOL    R112810  11.260  16.778   6.404 -0.2346 -0.2781 -0.0918
    1CHOL    R212811  11.497  16.849   6.281 -0.3645 -0.0099 -0.1797
    1CHOL    R312812  11.438  16.640   6.118 -0.0365 -0.2733  0.0252
    1CHOL    R412813  11.649  16.787   5.977 -0.3525  0.0224 -0.1814
    1CHOL    R512814  11.455  16.730   5.897 -0.2917 -0.4207 -0.0645
    1CHOL    C112815  11.683  16.554   5.647 -0.0376 -0.2064  0.0101
    1CHOL    C212816  11.653  16.798   5.327 -0.0106  0.0385  0.0925
    1CHOL   ROH12817  19.578  17.331   3.259 -0.0413 -0.3219 -0.0414
    1CHOL    R112818  19.433  17.270   3.494 -0.0529 -0.1123  0.0077
    1CHOL    R212819  19.546  17.137   3.708 -0.1197 -0.0950  0.0477
    1CHOL    R312820  19.455  17.352   3.848  0.0521  0.0297 -0.0288
    1CHOL    R412821  19.446  17.129   4.039 -0.3633  0.0267 -0.0206
    1CHOL    R512822  19.281  17.263   3.987 -0.1660  0.2415 -0.1473
    1CHOL    C112823  19.303  17.325   4.363 -0.3433  0.2148 -0.1321
    1CHOL    C212824  19.404  17.144   4.718 -0.1414 -0.1246  0.3874
    1CHOL   ROH12825   9.832  23.806   3.836  0.0116  0.1923  0.0031
    1CHOL    R112826   9.811  24.024   4.015  0.0684  0.0803  0.1490
    1CHOL    R212827   9.908  24.014   4.274  0.4245  0.0194  0.0210
    1CHOL    R312828  10.040  24.239   4.198  0.1401  0.1698 -0.0443
    1CHOL    R412829  10.039  24.247   4.492  0.3476  0.1235 -0.0435
    1CHOL    R512830   9.970  24.405   4.357  0.0866  0.0751  0.0301
    1CHOL    C112831  10.240  24.594   4.549  0.0359  0.3256 -0.1423
    1CHOL    C212832  10.282  25.037   4.764 -0.1575  0.1655  0.1569
    1CHOL   ROH12833   8.770  11.515   6.510  0.2330 -0.0378 -0.1793
    1CHOL    R112834   8.576  11.605   6.324  0.1189  0.0555 -0.0170
    1CHOL    R212835   8.642  11.759   6.104 -0.0032  0.0933 -0.0263
    1CHOL    R312836   8.511  11.563   5.969 -0.1506  0.1589  0.0180
    1CHOL    R412837   8.568  11.769   5.767  0.4824 -0.1560 -0.1496
    1CHOL    R512838   8.373  11.682   5.812  0.2617  0.2267 -0.3124
    1CHOL    C112839   8.402  11.591   5.443  0.6267 -0.2396 -0.1798
    1CHOL    C212840   8.456  11.591   5.025 -0.1632 -0.0739 -0.1068
    1CHOL   ROH12841   9.198   9.500   3.620 -0.1251  0.0801  0.0672
    1CHOL    R112842   9.175   9.402   3.884 -0.0427  0.0188  0.0507
    1CHOL    R212843   9.252   9.549   4.105  0.0161 -0.0320  0.0567
    1CHOL    R312844   8.998   9.497   4.187  0.0439 -0.0608  0.1294
    1CHOL    R412845   9.149   9.535   4.435  0.0616  0.2625  0.0872
    1CHOL    R512846   9.025   9.364   4.384  0.1281  0.1475  0.2695
    1CHOL    C112847   8.851   9.478   4.704  0.1142  0.4069  0.1733
    1CHOL    C212848   8.863   9.731   4.968 -0.2562  0.0625  0.1512
    1CHOL   ROH12849   0.763  17.142   5.230  0.0187  0.0844  0.0293
    1CHOL    R112850   0.763  17.094   4.951  0.0169  0.0129  0.0413
    1CHOL    R212851   0.783  17.298   4.765 -0.0608 -0.0284 -0.0127
    1CHOL    R312852   0.992  17.150   4.674 -0.0184  0.0161  0.0127
    1CHOL    R412853   0.864  17.256   4.432 -0.0515 -0.0630 -0.0059
    1CHOL    R512854   0.909  17.047   4.474  0.0096 -0.0432  0.0312
    1CHOL    C112855   1.108  17.093   4.152 -0.0064 -0.0416  0.0219
    1CHOL    C212856   0.952  16.965   3.794 -0.0141  0.2262  0.1208
    1CHOL   ROH12857   6.503  24.206   3.408 -0.2056  0.1191 -0.1299
    1CHOL    R112858   6.272  24.241   3.567 -0.1567  0.0504 -0.0425
    1CHOL    R212859   6.278  24.230   3.843 -0.0389  0.1124 -0.0414
    1CHOL    R312860   6.159  24.474   3.823 -0.1551  0.0557 -0.0470
    1CHOL    R412861   6.160  24.414   4.111  0.0413  0.1448 -0.0283
    1CHOL    R512862   5.987  24.470   3.990 -0.0546  0.0334  0.0569
    1CHOL    C112863   5.980  24.750   4.248 -0.0210  0.1106 -0.0259
    1CHOL    C212864   5.727  24.583   4.560  0.0973 -0.1241 -0.1641
    1CHOL   ROH12865  16.611  16.665   6.671  0.0023 -0.0640 -0.0118
    1CHOL    R112866  16.633  16.767   6.408  0.0525 -0.0268  0.0072
    1CHOL    R212867  16.820  16.958   6.339  0.0539 -0.0059  0.0743
    1CHOL    R312868  16.888  16.776   6.148  0.1075  0.0257  0.0623
    1CHOL    R412869  16.957  17.037   6.031 -0.2464  0.0793 -0.0423
    1CHOL    R512870  16.831  16.883   5.941 -0.1538 -0.0723  0.0794
    1CHOL    C112871  17.102  16.912   5.674 -0.3711  0.1588 -0.1214
    1CHOL    C212872  17.060  17.025   5.280 -0.1622  0.0251 -0.1690
    1CHOL   ROH12873  18.890  11.312   3.352  0.1600  0.0987 -0.0887
    1CHOL    R112874  19.057  11.401   3.563  0.0585 -0.0171  0.0434
    1CHOL    R212875  19.029  11.650   3.681  0.1330  0.0019  0.0240
    1CHOL    R312876  19.015  11.503   3.909 -0.1436  0.0057  0.0129
    1CHOL    R412877  19.083  11.774   3.999 -0.0210 -0.0444  0.0691
    1CHOL    R512878  19.190  11.591   4.047 -0.1855 -0.1210  0.1487
    1CHOL    C112879  19.101  11.709   4.398 -0.3703 -0.0679  0.0848
    1CHOL    C212880  19.364  11.624   4.608 -0.0331 -0.1507  0.1241
    1CHOL   ROH12881  20.417  29.162   5.989  0.0025  0.1144  0.0980
    1CHOL    R112882  20.498  29.384   5.832  0.0973 -0.0014 -0.0202
    1CHOL    R212883  20.435  29.407   5.564  0.0585 -0.0896 -0.0210
    1CHOL    R312884  20.333  29.646   5.641  0.2067  0.0031 -0.1089
    1CHOL    R412885  20.286  29.635   5.352 -0.0373 -0.1904 -0.0627
    1CHOL    R512886  20.387  29.795   5.461  0.1095 -0.1454 -0.2616
    1CHOL    C112887  20.103  29.993   5.301  0.0462 -0.1620 -0.1694
    1CHOL    C212888  20.085  30.336   5.212  0.2594 -0.2797 -0.0234
    1CHOL   ROH12889  13.690  12.661   3.084 -0.0608  0.1865 -0.0843
    1CHOL    R112890  13.833  12.788   3.293 -0.0258  0.0446 -0.0214
    1CHOL    R212891  13.709  12.949   3.481  0.0318  0.0515  0.0049
    1CHOL    R312892  13.831  12.781   3.657 -0.0868 -0.0652 -0.0221
    1CHOL    R412893  13.720  12.995   3.823  0.4073  0.2192 -0.0250
    1CHOL    R512894  13.927  12.926   3.821  0.3032 -0.1275 -0.1783
    1CHOL    C112895  13.841  12.865   4.188  0.5148  0.2075 -0.0676
    1CHOL    C212896  13.829  12.967   4.527  0.0639  0.0602 -0.1743
    1CHOL   ROH12897  10.126  17.887   2.646 -0.0576 -0.0002 -0.0570
    1CHOL    R112898  10.149  17.847   2.925 -0.1740 -0.0457 -0.0540
    1CHOL    R212899  10.209  18.051   3.101 -0.0348 -0.1159 -0.0214
    1CHOL    R312900   9.981  17.968   3.224 -0.1475  0.0830 -0.0901
    1CHOL    R412901  10.153  18.062   3.442 -0.1195 -0.0793 -0.0359
    1CHOL    R512902  10.057  17.867   3.428 -0.2931  0.0045 -0.0715
    1CHOL    C112903   9.907  17.991   3.756 -0.2747  0.1286 -0.1088
    1CHOL    C212904  10.005  17.919   4.092 -0.0561  0.1853  0.0301
    1CHOL   ROH12905  15.751  12.452   2.995  0.0018  0.2013 -0.0439
    1CHOL    R112906  15.651  12.572   3.231  0.0445  0.1186  0.0170
    1CHOL    R212907  15.528  12.427   3.431  0.1525  0.0370  0.0255
    1CHOL    R312908  15.715  12.546   3.588  0.1701  0.0552 -0.0095
    1CHOL    R412909  15.523  12.428   3.776  0.1988  0.0644  0.0260
    1CHOL    R512910  15.590  12.636   3.772  0.1920  0.0660  0.0003
    1CHOL    C112911  15.696  12.541   4.125  0.2424  0.0974 -0.0065
    1CHOL    C212912  15.607  12.456   4.491  0.0312  0.1894  0.0199
    1CHOL   ROH12913  20.685   6.565   4.200  0.0563 -0.0369 -0.2170
    1CHOL    R112914  20.894   6.612   4.384  0.0649 -0.0838 -0.2146
    1CHOL    R212915  21.121   6.756   4.319  0.0701 -0.0786 -0.1930
    1CHOL    R312916  21.051   6.902   4.537  0.0812 -0.1216 -0.1611
    1CHOL    R412917  21.317   7.001   4.463  0.0918 -0.1369 -0.1229
    1CHOL    R512918  21.256   6.928   4.659  0.0761 -0.1746 -0.1455
    1CHOL    C112919  21.366   7.281   4.753  0.1147 -0.2112 -0.0521
    1CHOL    C212920  21.409   7.664   4.730  0.1276  0.1106 -0.2806
    1CHOL   ROH12921  14.104   2.705   6.489  0.1968  0.0388 -0.1650
    1CHOL    R112922  14.060   2.682   6.211 -0.0022 -0.0914 -0.1256
    1CHOL    R212923  13.861   2.524   6.104 -0.2655  0.0755  0.0988
    1CHOL    R312924  13.789   2.754   5.979 -0.0623  0.0859 -0.0018
    1CHOL    R412925  13.721   2.541   5.789  0.0002  0.0861 -0.0208
    1CHOL    R512926  13.845   2.716   5.749  0.1097  0.0237  0.0498
    1CHOL    C112927  13.572   2.767   5.487  0.3460  0.1020 -0.1849
    1CHOL    C212928  13.425   2.432   5.356  0.2181  0.0720  0.2315
    1CHOL   ROH12929  21.375  26.668   4.210 -0.1808 -0.1711  0.0061
    1CHOL    R112930  21.547  26.790   4.399 -0.1527 -0.0829 -0.0752
    1CHOL    R212931  21.540  27.060   4.454 -0.2347 -0.0789 -0.1060
    1CHOL    R312932  21.508  26.976   4.710 -0.1019 -0.0602 -0.0822
    1CHOL    R412933  21.573  27.261   4.733 -0.2284 -0.0244 -0.1455
    1CHOL    R512934  21.674  27.095   4.834 -0.1132  0.0364 -0.1588
    1CHOL    C112935  21.562  27.298   5.137 -0.1000  0.0249 -0.1461
    1CHOL    C212936  21.667  27.507   5.449 -0.0101 -0.0135 -0.2098
    1CHOL   ROH12937  10.304  15.713   6.313 -0.1939 -0.2365 -0.0271
    1CHOL    R112938  10.521  15.663   6.138 -0.0931  0.0391  0.0150
    1CHOL    R212939  10.533  15.440   5.976  0.2678  0.0017  0.0916
    1CHOL    R312940  10.568  15.624   5.779  0.0097 -0.0071  0.0316
    1CHOL    R412941  10.616  15.366   5.649  0.2283 -0.0023  0.0815
    1CHOL    R512942  10.750  15.538   5.649  0.0572  0.1410 -0.0087
    1CHOL    C112943  10.698  15.497   5.274 -0.0369 -0.0129  0.0192
    1CHOL    C212944  10.604  15.464   5.021 -0.1286  0.2063 -0.2016
    1CHOL   ROH12945  27.803  11.083   5.804 -0.1281  0.0782 -0.0006
    1CHOL    R112946  27.781  11.187   5.542 -0.0470 -0.0122 -0.0443
    1CHOL    R212947  27.754  11.025   5.320  0.0066 -0.0897  0.0024
    1CHOL    R312948  27.535  11.179   5.274  0.0286 -0.0919 -0.1113
    1CHOL    R412949  27.587  11.047   5.018  0.0578 -0.2220 -0.0360
    1CHOL    R512950  27.565  11.261   5.052  0.0715 -0.2048 -0.1462
    1CHOL    C112951  27.283  11.204   4.800  0.1082 -0.3012 -0.1652
    1CHOL    C212952  27.148  10.969   4.455  0.0098 -0.0756  0.3210
    1CHOL   ROH12953   2.600   9.172   5.178  0.0171  0.1421  0.1388
    1CHOL    R112954   2.448   9.185   4.940  0.0324  0.0314  0.1221
    1CHOL    R212955   2.171   9.189   4.941  0.0309 -0.0207  0.0995
    1CHOL    R312956   2.206   9.415   4.794  0.0000 -0.0642  0.0249
    1CHOL    R412957   1.924   9.346   4.756  0.0289 -0.1570 -0.0151
    1CHOL    R512958   2.071   9.382   4.599  0.0541 -0.1730  0.0059
    1CHOL    C112959   1.814   9.649   4.511 -0.0013 -0.2773 -0.1518
    1CHOL    C212960   1.859   9.910   4.187  0.1637 -0.0730 -0.3322
    1CHOL   ROH12961  19.515  16.240   6.597 -0.0194 -0.1270 -0.1318
    1CHOL    R112962  19.456  16.327   6.334  0.0653 -0.0804 -0.1368
    1CHOL    R212963  19.632  16.478   6.184  0.1639 -0.1486 -0.0999
    1CHOL    R312964  19.596  16.280   6.001  0.1024 -0.1234 -0.1135
    1CHOL    R412965  19.585  16.528   5.845 -0.1443 -0.1037 -0.0529
    1CHOL    R512966  19.435  16.370   5.848 -0.0662 -0.1691  0.0385
    1CHOL    C112967  19.524  16.371   5.477 -0.3816 -0.0538 -0.0383
    1CHOL    C212968  19.858  16.369   5.092 -0.0401 -0.0312 -0.1621
    1CHOL   ROH12969  12.564  18.942   2.837  0.2037 -0.1400  0.1436
    1CHOL    R112970  12.562  19.014   3.111  0.1581 -0.1086  0.1367
    1CHOL    R212971  12.519  19.274   3.197  0.0756 -0.1036  0.1063
    1CHOL    R312972  12.323  19.158   3.345  0.0936 -0.1486  0.0922
    1CHOL    R412973  12.409  19.388   3.504 -0.2067  0.0524 -0.0498
    1CHOL    R512974  12.397  19.181   3.571 -0.0630  0.1039  0.1148
    1CHOL    C112975  12.161  19.345   3.822 -0.3544  0.1011 -0.1540
    1CHOL    C212976  12.275  19.304   4.196 -0.0121 -0.0074 -0.2211
    1CHOL   ROH12977  15.489  12.965   6.612  0.0222  0.0649  0.0483
    1CHOL    R112978  15.539  13.094   6.365  0.1357  0.0563  0.0656
    1CHOL    R212979  15.673  12.971   6.157  0.0040 -0.0458  0.0375
    1CHOL    R312980  15.451  13.039   6.016  0.0599  0.1963  0.0627
    1CHOL    R412981  15.649  12.967   5.812 -0.1403 -0.3421  0.0476
    1CHOL    R512982  15.536  13.153   5.823  0.1794 -0.1335 -0.0844
    1CHOL    C112983  15.427  13.029   5.479 -0.1718 -0.2874  0.0771
    1CHOL    C212984  15.414  12.977   5.097 -0.0475  0.0878 -0.3059
    1CHOL   ROH12985  11.882  11.068   3.193  0.0958 -0.2613 -0.0208
    1CHOL    R112986  11.784  11.071   3.458  0.0276 -0.2087 -0.0461
    1CHOL    R212987  11.668  10.850   3.576  0.1921 -0.2521  0.0398
    1CHOL    R312988  11.855  10.894   3.768  0.1085  0.0133  0.0645
    1CHOL    R412989  11.603  10.868   3.915  0.0822 -0.0508  0.0091
    1CHOL    R512990  11.745  11.033   3.929 -0.0327  0.0557 -0.0674
    1CHOL    C112991  11.741  10.920   4.293 -0.0603  0.3154  0.0143
    1CHOL    C212992  11.586  11.001   4.483  0.2923  0.2283 -0.1894
    1CHOL   ROH12993   9.235   8.053   3.403  0.1276  0.0623 -0.1355
    1CHOL    R112994   9.416   7.919   3.574  0.0502  0.0119 -0.0928
    1CHOL    R212995   9.669   8.016   3.628  0.0093  0.0199  0.0858
    1CHOL    R312996   9.588   7.993   3.887 -0.1278 -0.0996  0.0336
    1CHOL    R412997   9.874   8.057   3.903 -0.1560 -0.0105  0.2154
    1CHOL    R512998   9.773   7.888   3.997 -0.1539 -0.0786  0.0988
    1CHOL    C112999   9.917   8.059   4.306 -0.3810 -0.1403  0.2419
    1CHOL    C213000  10.062   8.067   4.592 -0.3928  0.3754  0.3903
    1CHOL   ROH13001   9.502  28.628   4.066 -0.1096 -0.1129  0.1887
    1CHOL    R113002   9.544  28.782   4.300 -0.0266  0.0055  0.0979
    1CHOL    R213003   9.685  29.019   4.299 -0.0775  0.0387 -0.0823
    1CHOL    R313004   9.459  29.116   4.415 -0.0429  0.0405 -0.0171
    1CHOL    R413005   9.660  29.324   4.460  0.0458 -0.0918  0.1902
    1CHOL    R513006   9.537  29.229   4.611 -0.0113 -0.1703  0.0921
    1CHOL    C113007   9.434  29.593   4.662  0.1501 -0.1663  0.4101
    1CHOL    C213008   9.053  29.661   4.748 -0.2880  0.1257 -0.1964
    1CHOL   ROH13009  23.722  16.685   5.995 -0.1099 -0.1535 -0.0031
    1CHOL    R113010  23.767  16.923   5.848 -0.1969 -0.0675  0.1096
    1CHOL    R213011  23.768  16.929   5.571 -0.0403  0.0306  0.1173
    1CHOL    R313012  23.582  17.124   5.607 -0.2024 -0.1113  0.0740
    1CHOL    R413013  23.571  17.063   5.321  0.2583  0.1996 -0.0343
    1CHOL    R513014  23.599  17.259   5.411  0.0237  0.1236  0.2412
    1CHOL    C113015  23.282  17.324   5.209  0.2800  0.1648 -0.1631
    1CHOL    C213016  23.227  17.399   4.877 -0.2863  0.2538  0.3068
    1CHOL   ROH13017  10.183  19.670   2.681  0.0895  0.0009 -0.0258
    1CHOL    R113018  10.234  19.670   2.959  0.0561 -0.0165 -0.0200
    1CHOL    R213019  10.076  19.533   3.140  0.0390 -0.0303 -0.0502
    1CHOL    R313020  10.313  19.421   3.213  0.0316 -0.0306 -0.0246
    1CHOL    R413021  10.122  19.328   3.414  0.0205  0.0481  0.0120
    1CHOL    R513022  10.311  19.429   3.452  0.0350  0.0440 -0.0236
    1CHOL    C113023  10.370  19.104   3.643  0.0027  0.0935  0.0722
    1CHOL    C213024  10.346  18.957   3.958  0.1833 -0.2549  0.2101
    1CHOL   ROH13025  11.412  24.436   5.978 -0.1167 -0.0594 -0.0312
    1CHOL    R113026  11.474  24.630   5.782 -0.0884  0.0435  0.0782
    1CHOL    R213027  11.528  24.894   5.844  0.0220 -0.0163  0.2347
    1CHOL    R313028  11.756  24.846   5.704 -0.0255 -0.0096  0.1546
    1CHOL    R413029  11.723  25.137   5.696 -0.1666 -0.0255 -0.0341
    1CHOL    R513030  11.750  25.005   5.525 -0.1908 -0.1358  0.0436
    1CHOL    C113031  12.051  25.235   5.477 -0.3207 -0.0245 -0.2659
    1CHOL    C213032  12.242  25.581   5.560  0.2916 -0.3066  0.0782
    1CHOL   ROH13033   9.779  24.696   6.070  0.1069 -0.0161 -0.0059
    1CHOL    R113034   9.699  24.787   5.815  0.0299  0.0465  0.0397
    1CHOL    R213035   9.482  24.953   5.777 -0.1108 -0.1141  0.1239
    1CHOL    R313036   9.663  25.109   5.648 -0.2388  0.1023  0.2017
    1CHOL    R413037   9.402  25.208   5.558 -0.3171 -0.0750  0.2420
    1CHOL    R513038   9.568  25.145   5.431 -0.2600  0.1260  0.2166
    1CHOL    C113039   9.526  25.504   5.310 -0.5575  0.1511  0.3839
    1CHOL    C213040   9.385  25.845   5.057 -0.0164 -0.1316  0.0526
    1CHOL   ROH13041  14.509  18.827   3.146 -0.0838  0.0108  0.0342
    1CHOL    R113042  14.547  18.779   3.423 -0.1070 -0.0227  0.0318
    1CHOL    R213043  14.508  18.974   3.614 -0.1319 -0.0480  0.0532
    1CHOL    R313044  14.342  18.788   3.723 -0.1346 -0.0685  0.0143
    1CHOL    R413045  14.442  18.941   3.952 -0.2337 -0.0335  0.0349
    1CHOL    R513046  14.449  18.725   3.928 -0.1886 -0.0341  0.0534
    1CHOL    C113047  14.247  18.748   4.251 -0.2956 -0.0439 -0.0122
    1CHOL    C213048  13.996  18.736   4.642  0.0359  0.1410  0.1893
    1CHOL   ROH13049   9.650  19.712   6.156  0.0701 -0.0982 -0.1253
    1CHOL    R113050   9.545  19.846   5.929  0.0504 -0.0563 -0.0913
    1CHOL    R213051   9.706  19.940   5.725  0.0245 -0.0896 -0.1249
    1CHOL    R313052   9.539  19.792   5.570 -0.0555 -0.0330 -0.0938
    1CHOL    R413053   9.750  19.882   5.387  0.0226 -0.2192 -0.1034
    1CHOL    R513054   9.535  19.907   5.360  0.0378 -0.0919 -0.1303
    1CHOL    C113055   9.618  19.709   5.045 -0.0536 -0.2418 -0.0616
    1CHOL    C213056   9.820  19.767   4.790 -0.2805  0.0026  0.1767
    1CHOL   ROH13057  23.823  28.353   3.408  0.0834 -0.0742 -0.0177
    1CHOL    R113058  23.798  28.586   3.568 -0.0401 -0.0598 -0.0565
    1CHOL    R213059  23.791  28.576   3.844  0.0085 -0.0140 -0.0533
    1CHOL    R313060  23.996  28.753   3.824 -0.1068  0.1143 -0.1169
    1CHOL    R413061  23.816  28.870   4.023 -0.1112 -0.0076 -0.0458
    1CHOL    R513062  23.892  28.967   3.843 -0.2339  0.0497 -0.0683
    1CHOL    C113063  24.024  29.208   4.108 -0.2895  0.1163 -0.1012
    1CHOL    C213064  23.967  29.527   4.280 -0.0402 -0.0992 -0.0929
    1CHOL   ROH13065  20.410  11.711   6.171 -0.0664 -0.0874  0.0052
    1CHOL    R113066  20.441  11.520   5.965 -0.1575 -0.0935 -0.0022
    1CHOL    R213067  20.240  11.460   5.786 -0.1606  0.0640 -0.0470
    1CHOL    R313068  20.430  11.520   5.601 -0.0797 -0.0595 -0.0060
    1CHOL    R413069  20.260  11.319   5.471 -0.3361  0.2220 -0.1317
    1CHOL    R513070  20.477  11.310   5.494 -0.3397 -0.0618 -0.1297
    1CHOL    C113071  20.451  11.293   5.114 -0.3623  0.1982 -0.1426
    1CHOL    C213072  20.186  11.160   4.945  0.0104 -0.2448  0.2048
    1CHOL   ROH13073  10.987  10.582   6.709 -0.0490 -0.1582 -0.1104
    1CHOL    R113074  11.062  10.452   6.470 -0.1842 -0.0760 -0.1999
    1CHOL    R213075  10.947  10.511   6.226 -0.0437  0.2972 -0.1869
    1CHOL    R313076  11.206  10.549   6.150  0.0367 -0.0179 -0.0840
    1CHOL    R413077  11.071  10.448   5.909 -0.0167  0.2799 -0.1726
    1CHOL    R513078  11.251  10.366   6.001 -0.1586 -0.0083 -0.1523
    1CHOL    C113079  11.385  10.447   5.653  0.0745 -0.0261 -0.0676
    1CHOL    C213080  11.766  10.358   5.489  0.1086  0.2009  0.3666
    1CHOL   ROH13081   2.515  17.773   3.769 -0.0707 -0.0502 -0.0904
    1CHOL    R113082   2.408  17.529   3.674 -0.0666 -0.0857 -0.0038
    1CHOL    R213083   2.141  17.465   3.697 -0.0647 -0.0838  0.0229
    1CHOL    R313084   2.160  17.426   3.429 -0.0681 -0.1768  0.0356
    1CHOL    R413085   1.903  17.306   3.504 -0.1378 -0.0154  0.0557
    1CHOL    R513086   2.065  17.209   3.394 -0.1827 -0.1368  0.0957
    1CHOL    C113087   1.782  17.176   3.139 -0.1836 -0.0628  0.0866
    1CHOL    C213088   1.382  17.220   2.984 -0.2133 -0.0540  0.0606
    1CHOL   ROH13089  12.932  17.961   6.392 -0.2900  0.0017  0.0520
    1CHOL    R113090  12.930  18.017   6.115 -0.1537  0.1356  0.0769
    1CHOL    R213091  13.122  18.173   5.993  0.1088 -0.0931  0.1883
    1CHOL    R313092  13.150  17.957   5.831 -0.1858 -0.0646  0.0922
    1CHOL    R413093  13.156  18.187   5.650  0.0578  0.0104  0.1869
    1CHOL    R513094  13.026  18.013   5.635 -0.1595  0.1713  0.1385
    1CHOL    C113095  13.203  17.992   5.298 -0.2485  0.0977  0.0959
    1CHOL    C213096  13.041  17.876   5.011  0.1594 -0.0817 -0.0170
    1CHOL   ROH13097  17.568   8.823   6.969 -0.1029 -0.2405 -0.0531
    1CHOL    R113098  17.539   8.655   6.744 -0.0092 -0.1780 -0.1124
    1CHOL    R213099  17.335   8.686   6.560  0.0205 -0.1777 -0.1440
    1CHOL    R313100  17.540   8.695   6.382  0.0546 -0.0646 -0.1003
    1CHOL    R413101  17.301   8.647   6.218  0.0848  0.0399 -0.1767
    1CHOL    R513102  17.484   8.528   6.219  0.0846  0.0384 -0.2176
    1CHOL    C113103  17.475   8.633   5.852  0.1543  0.2728 -0.1547
    1CHOL    C213104  17.351   8.731   5.510 -0.1470 -0.2675 -0.0226
    1CHOL   ROH13105  19.353  17.097   6.752  0.1842  0.1524  0.0869
    1CHOL    R113106  19.315  17.082   6.472  0.1330  0.1247  0.0962
    1CHOL    R213107  19.076  17.150   6.350  0.1508  0.2207  0.1248
    1CHOL    R313108  19.236  17.314   6.202  0.2052  0.1178  0.0671
    1CHOL    R413109  19.042  17.206   6.011  0.0112  0.2914  0.1490
    1CHOL    R513110  19.259  17.200   5.993  0.0049  0.1224  0.0358
    1CHOL    C113111  19.172  17.391   5.674 -0.0191  0.2360  0.1089
    1CHOL    C213112  19.003  17.626   5.308  0.0198 -0.0919  0.4395
    1CHOL   ROH13113  21.012  17.810   3.422  0.0600 -0.1041  0.0166
    1CHOL    R113114  21.116  17.716   3.668  0.1494  0.0022  0.0201
    1CHOL    R213115  21.193  17.887   3.871 -0.0922  0.0815  0.0474
    1CHOL    R313116  21.022  17.735   4.019  0.0798 -0.1528  0.0113
    1CHOL    R413117  21.223  17.832   4.211 -0.1368  0.2088  0.0718
    1CHOL    R513118  21.164  17.625   4.178  0.1972  0.1025  0.0929
    1CHOL    C113119  21.080  17.659   4.548 -0.0014  0.0630  0.0522
    1CHOL    C213120  21.421  17.712   4.787 -0.0586  0.1228 -0.6050
    1CHOL   ROH13121  13.333  16.417   6.680 -0.0548 -0.1089 -0.0745
    1CHOL    R113122  13.448  16.271   6.467 -0.1691 -0.1595 -0.1010
    1CHOL    R213123  13.296  16.146   6.272 -0.2649  0.0847 -0.1795
    1CHOL    R313124  13.452  16.292   6.104 -0.0602 -0.0290 -0.0949
    1CHOL    R413125  13.326  16.090   5.933 -0.2602  0.1610 -0.1928
    1CHOL    R513126  13.539  16.131   5.949 -0.2082 -0.0840 -0.1301
    1CHOL    C113127  13.490  16.194   5.576 -0.0653  0.0990 -0.1213
    1CHOL    C213128  13.559  16.079   5.107  0.0784  0.2439  0.2781
    1CHOL   ROH13129  10.819   7.930   6.764 -0.2412 -0.1079 -0.0683
    1CHOL    R113130  10.749   7.834   6.507 -0.1037 -0.1003 -0.1087
    1CHOL    R213131  10.693   8.003   6.295 -0.0766 -0.0943 -0.1081
    1CHOL    R313132  10.886   7.857   6.170  0.0242 -0.0116 -0.0522
    1CHOL    R413133  10.767   8.020   5.958 -0.0807 -0.1594 -0.1127
    1CHOL    R513134  10.791   7.803   5.957  0.0621 -0.1469 -0.0378
    1CHOL    C113135  10.990   7.892   5.644  0.0117 -0.1195 -0.0631
    1CHOL    C213136  11.220   7.644   5.534  0.1567  0.0441  0.0973
    1CHOL   ROH13137  21.548   8.669   5.064  0.0201  0.1231 -0.0594
    1CHOL    R113138  21.378   8.459   4.980 -0.0084  0.1117  0.0249
    1CHOL    R213139  21.383   8.208   5.094  0.2048  0.0527 -0.1086
    1CHOL    R313140  21.117   8.253   5.129  0.2253 -0.0509  0.2170
    1CHOL    R413141  21.132   7.981   5.021  0.1849  0.1054 -0.2041
    1CHOL    R513142  21.013   8.146   4.942  0.0699  0.2033  0.1520
    1CHOL    C113143  20.737   7.893   5.011  0.1928  0.0389  0.0459
    1CHOL    C213144  20.508   7.759   4.694 -0.2352 -0.0126  0.1353
    1CHOL   ROH13145  17.651  23.161   3.761 -0.2372 -0.0221 -0.0575
    1CHOL    R113146  17.747  23.181   4.026 -0.1836 -0.0461 -0.0747
    1CHOL    R213147  17.686  22.995   4.221 -0.0975 -0.0958 -0.0920
    1CHOL    R313148  17.956  22.981   4.247 -0.0884 -0.0370 -0.1563
    1CHOL    R413149  17.852  22.830   4.476  0.0007  0.0412 -0.0666
    1CHOL    R513150  17.994  22.995   4.483 -0.0273  0.0684 -0.1731
    1CHOL    C113151  18.202  22.722   4.648  0.0663  0.1760 -0.1122
    1CHOL    C213152  18.321  22.420   4.915 -0.1579  0.2450  0.0490
    1CHOL   ROH13153  22.202  12.735   3.056 -0.0666  0.0379 -0.0109
    1CHOL    R113154  22.216  12.693   3.336 -0.0248  0.0134 -0.0176
    1CHOL    R213155  22.424  12.557   3.456  0.0912  0.1761 -0.0429
    1CHOL    R313156  22.443  12.783   3.606 -0.0956  0.1713 -0.0084
    1CHOL    R413157  22.557  12.573   3.774  0.1822  0.2506 -0.0831
    1CHOL    R513158  22.397  12.710   3.829  0.0517  0.0776 -0.0046
    1CHOL    C113159  22.652  12.794   4.101  0.0598  0.2894 -0.0740
    1CHOL    C213160  22.801  12.453   4.281 -0.0051 -0.1532  0.1091
    1CHOL   ROH13161  12.883  17.653   2.973 -0.0331 -0.0550 -0.0212
    1CHOL    R113162  12.933  17.533   3.224 -0.1193 -0.0777 -0.0149
    1CHOL    R213163  13.025  17.675   3.442  0.0967 -0.1518 -0.0572
    1CHOL    R313164  12.808  17.567   3.564 -0.0056  0.1203  0.0092
    1CHOL    R413165  12.994  17.628   3.783  0.2884 -0.4075 -0.0715
    1CHOL    R513166  12.899  17.436   3.742 -0.0892 -0.2115 -0.1818
    1CHOL    C113167  12.771  17.500   4.096  0.3038 -0.3011 -0.0175
    1CHOL    C213168  12.740  17.518   4.437  0.2107  0.1720  0.1410
    1CHOL   ROH13169   9.958  18.980   5.927  0.1217  0.2166 -0.0768
    1CHOL    R113170  10.101  18.964   5.683  0.0399  0.1997 -0.1256
    1CHOL    R213171  10.076  18.751   5.509  0.1534  0.0717  0.0026
    1CHOL    R313172  10.019  18.946   5.329 -0.0902 -0.0754 -0.0822
    1CHOL    R413173  10.128  18.727   5.168  0.1990  0.0052  0.0151
    1CHOL    R513174  10.196  18.934   5.169 -0.0695  0.0919 -0.0669
    1CHOL    C113175  10.105  18.897   4.801 -0.0031 -0.1714 -0.0573
    1CHOL    C213176  10.204  18.799   4.496 -0.2205  0.1382 -0.0041
    1CHOL   ROH13177  13.624   7.470   3.915  0.1338  0.0781 -0.1037
    1CHOL    R113178  13.723   7.449   4.179  0.2842  0.2015 -0.1495
    1CHOL    R213179  13.869   7.651   4.300 -0.1149  0.4898 -0.1381
    1CHOL    R313180  13.678   7.628   4.493  0.0019 -0.0042 -0.0667
    1CHOL    R413181  13.911   7.737   4.632 -0.2024  0.6063 -0.1559
    1CHOL    R513182  13.798   7.559   4.688  0.2659  0.2989 -0.1101
    1CHOL    C113183  13.757   7.765   5.006 -0.1435  0.2102 -0.0994
    1CHOL    C213184  14.038   7.816   5.122 -0.1724 -0.0104  0.0150
    1CHOL   ROH13185   8.613  10.211   3.581 -0.2553 -0.2303 -0.1770
    1CHOL    R113186   8.558  10.166   3.855 -0.2537 -0.2512 -0.1804
    1CHOL    R213187   8.518  10.372   4.035  0.1282 -0.2536 -0.0866
    1CHOL    R313188   8.286  10.239   4.086 -0.0778  0.0978 -0.0764
    1CHOL    R413189   8.399  10.295   4.351  0.1546 -0.2872 -0.0845
    1CHOL    R513190   8.337  10.100   4.274 -0.2144 -0.1328 -0.2033
    1CHOL    C113191   8.112  10.126   4.582 -0.0231  0.0231 -0.0738
    1CHOL    C213192   7.862   9.882   4.736  0.1552 -0.0938 -0.0142
    1CHOL   ROH13193  18.885  10.140   6.347 -0.3492  0.0017  0.1554
    1CHOL    R113194  18.705  10.049   6.149 -0.1928  0.0075  0.0076
    1CHOL    R213195  18.586  10.220   5.967 -0.0869  0.0210 -0.0525
    1CHOL    R313196  18.691  10.047   5.785  0.0731  0.0666 -0.0047
    1CHOL    R413197  18.511  10.220   5.629  0.0127 -0.0617 -0.0747
    1CHOL    R513198  18.510  10.002   5.635  0.1458 -0.0616 -0.0537
    1CHOL    C113199  18.567  10.058   5.262  0.2209 -0.0669 -0.0428
    1CHOL    C213200  18.583  10.139   4.862 -0.0192  0.1796 -0.3961
    1CHOL   ROH13201   8.243  12.430   6.426  0.0084  0.1124  0.1420
    1CHOL    R113202   8.214  12.533   6.164  0.0605  0.0630  0.1158
    1CHOL    R213203   8.281  12.792   6.098  0.1209  0.0395  0.0670
    1CHOL    R313204   8.434  12.671   5.909  0.1201 -0.0345  0.1152
    1CHOL    R413205   8.271  12.863   5.760  0.0189 -0.2009  0.0184
    1CHOL    R513206   8.289  12.650   5.720  0.0872 -0.2198  0.1624
    1CHOL    C113207   8.409  12.791   5.386 -0.0411 -0.4104  0.0354
    1CHOL    C213208   8.251  12.970   5.083  0.2864  0.2857  0.2616
    1CHOL   ROH13209  22.008  18.411   5.091 -0.1616 -0.0607 -0.2135
    1CHOL    R113210  21.871  18.651   5.149  0.1133  0.0823 -0.1430
    1CHOL    R213211  21.613  18.655   5.250 -0.0031  0.3468 -0.4520
    1CHOL    R313212  21.726  18.808   5.444 -0.0155 -0.0009 -0.1590
    1CHOL    R413213  21.438  18.856   5.469 -0.0061  0.2580 -0.3711
    1CHOL    R513214  21.593  19.007   5.448  0.1786  0.1359 -0.0479
    1CHOL    C113215  21.442  19.117   5.780 -0.0198 -0.1200 -0.0490
    1CHOL    C213216  21.310  19.346   5.977 -0.0713  0.3239  0.1603
    1CHOL   ROH13217   8.204  27.853   4.053  0.0286 -0.1252  0.0541
    1CHOL    R113218   8.089  27.838   4.311 -0.0124 -0.0890  0.0388
    1CHOL    R213219   8.136  28.029   4.506 -0.0122 -0.0803  0.0334
    1CHOL    R313220   7.865  28.041   4.513 -0.0111 -0.0389 -0.0110
    1CHOL    R413221   7.948  28.110   4.784 -0.0499 -0.0958  0.0121
    1CHOL    R513222   7.806  27.955   4.728 -0.0633 -0.0632 -0.0365
    1CHOL    C113223   7.583  28.169   4.952 -0.0708 -0.0663 -0.0420
    1CHOL    C213224   7.244  28.053   5.130  0.0823  0.0095  0.1736
    1CHOL   ROH13225  20.790   2.682   3.369 -0.0986 -0.0032  0.1074
    1CHOL    R113226  20.836   2.544   3.611  0.0108  0.0568  0.1207
    1CHOL    R213227  20.989   2.315   3.626 -0.0336  0.0302  0.0972
    1CHOL    R313228  21.125   2.455   3.815  0.1083  0.0510 -0.0168
    1CHOL    R413229  21.239   2.185   3.826 -0.3059 -0.1306  0.3415
    1CHOL    R513230  21.157   2.298   3.993 -0.2040  0.1994  0.1835
    1CHOL    C113231  21.512   2.241   4.121 -0.3313 -0.2047  0.3768
    1CHOL    C213232  21.845   2.241   4.367  0.2036  0.3460  0.1935
    1CHOL   ROH13233  13.558  10.441   6.791  0.0411  0.1942 -0.0931
    1CHOL    R113234  13.732  10.392   6.574  0.0474  0.2054 -0.0902
    1CHOL    R213235  13.695  10.183   6.397  0.1374  0.1236 -0.0125
    1CHOL    R313236  13.706  10.381   6.211  0.0221  0.0639 -0.0848
    1CHOL    R413237  13.649  10.138   6.057  0.1462 -0.0229  0.0049
    1CHOL    R513238  13.812  10.279   6.022  0.0691  0.0526 -0.0529
    1CHOL    C113239  13.633  10.297   5.685  0.0431 -0.1643 -0.0529
    1CHOL    C213240  13.554  10.245   5.311 -0.1870 -0.1182  0.0906
    1CHOL   ROH13241  17.131  21.646   6.236  0.3431 -0.1938 -0.0671
    1CHOL    R113242  17.099  21.485   6.005  0.1950  0.0047 -0.1851
    1CHOL    R213243  16.896  21.299   5.980  0.2321 -0.0165 -0.1799
    1CHOL    R313244  16.843  21.435   5.751 -0.0000  0.1613 -0.0287
    1CHOL    R413245  16.734  21.166   5.706  0.3414  0.0317 -0.2708
    1CHOL    R513246  16.875  21.273   5.577  0.1836  0.3628 -0.2047
    1CHOL    C113247  16.590  21.215   5.330  0.1870  0.2265 -0.1818
    1CHOL    C213248  16.315  21.065   5.242  0.0166 -0.2911 -0.1235
    1CHOL   ROH13249  25.760   7.330   5.619 -0.0608 -0.0320 -0.1073
    1CHOL    R113250  25.755   7.497   5.390 -0.1184  0.0277 -0.0620
    1CHOL    R213251  25.833   7.409   5.140 -0.0378  0.1370 -0.0743
    1CHOL    R313252  25.587   7.498   5.068 -0.0760  0.0266 -0.0845
    1CHOL    R413253  25.745   7.508   4.821 -0.1214 -0.0679 -0.1172
    1CHOL    R513254  25.631   7.672   4.909 -0.1526 -0.0499 -0.1908
    1CHOL    C113255  25.462   7.650   4.567 -0.2059 -0.2908 -0.1516
    1CHOL    C213256  25.458   7.540   4.275  0.1327 -0.1556 -0.0128
    1CHOL   ROH13257   7.534  13.613   6.185  0.0925 -0.3294 -0.0437
    1CHOL    R113258   7.663  13.647   5.936  0.0520 -0.0928 -0.0353
    1CHOL    R213259   7.618  13.480   5.721  0.1873 -0.0287 -0.1188
    1CHOL    R313260   7.561  13.712   5.592 -0.0238 -0.0109  0.0032
    1CHOL    R413261   7.569  13.509   5.380  0.3768  0.1415 -0.1325
    1CHOL    R513262   7.681  13.696   5.386  0.1360  0.2842  0.0698
    1CHOL    C113263   7.487  13.745   5.061  0.2891  0.2575 -0.0259
    1CHOL    C213264   7.631  13.821   4.787 -0.2156  0.2646  0.2890
    1CHOL   ROH13265  16.734  22.368   6.276 -0.2644  0.1401 -0.1212
    1CHOL    R113266  16.745  22.489   6.020  0.0866  0.1572 -0.1017
    1CHOL    R213267  16.961  22.457   5.850  0.1349 -0.1869  0.0210
    1CHOL    R313268  16.769  22.375   5.675  0.0911  0.1590 -0.1029
    1CHOL    R413269  17.001  22.435   5.507  0.3733 -0.3935  0.0592
    1CHOL    R513270  16.800  22.514   5.483  0.5496  0.0351 -0.1331
    1CHOL    C113271  16.846  22.345   5.144  0.4708 -0.1891 -0.0348
    1CHOL    C213272  16.911  22.646   5.003 -0.0019  0.1984  0.2468
    1CHOL   ROH13273  10.222  16.665   6.145  0.0718  0.0543  0.0613
    1CHOL    R113274  10.412  16.563   5.962  0.0460  0.0264  0.0495
    1CHOL    R213275  10.340  16.452   5.720  0.0139  0.0243  0.0587
    1CHOL    R313276  10.514  16.635   5.620  0.0247  0.0026  0.0385
    1CHOL    R413277  10.516  16.416   5.424  0.0558 -0.0420  0.0916
    1CHOL    R513278  10.690  16.504   5.523  0.0399 -0.0161  0.0940
    1CHOL    C113279  10.782  16.567   5.159  0.0905 -0.1008  0.0919
    1CHOL    C213280  10.749  16.746   4.824  0.0047  0.1668  0.0436
    1CHOL   ROH13281   8.783  18.778   4.954 -0.0058 -0.0049 -0.2879
    1CHOL    R113282   8.693  18.513   4.909 -0.0156 -0.0157 -0.2033
    1CHOL    R213283   8.643  18.336   5.115 -0.0745  0.0707 -0.1450
    1CHOL    R313284   8.399  18.316   4.996 -0.0500  0.0398 -0.1909
    1CHOL    R413285   8.463  18.043   5.084 -0.0999  0.0739 -0.0366
    1CHOL    R513286   8.407  18.105   4.882 -0.0467 -0.0204 -0.0831
    1CHOL    C113287   8.130  17.853   4.954 -0.0917  0.0468 -0.0166
    1CHOL    C213288   8.170  17.464   4.905  0.0499 -0.1613 -0.1122
    1CHOL   ROH13289  21.971  15.673   6.194 -0.2655  0.0925  0.0323
    1CHOL    R113290  21.821  15.602   5.965 -0.1650 -0.2258  0.0604
    1CHOL    R213291  21.882  15.695   5.712 -0.4312 -0.0550  0.0561
    1CHOL    R313292  21.884  15.430   5.650  0.1536 -0.0573  0.0274
    1CHOL    R413293  21.818  15.566   5.398 -0.7663 -0.1721  0.1691
    1CHOL    R513294  21.705  15.405   5.493 -0.1397 -0.5107  0.4062
    1CHOL    C113295  21.782  15.242   5.157 -0.4126 -0.2424  0.2079
    1CHOL    C213296  21.641  15.161   4.857  0.1889 -0.0904  0.3596
    1CHOL   ROH13297  14.200  20.281   6.636 -0.2620 -0.0001 -0.1250
    1CHOL    R113298  14.339  20.182   6.411 -0.1604  0.0103 -0.0663
    1CHOL    R213299  14.219  20.022   6.220 -0.0938  0.0824 -0.1639
    1CHOL    R313300  14.312  20.211   6.049  0.0537  0.0902 -0.0789
    1CHOL    R413301  14.229  19.989   5.876 -0.1165  0.2200 -0.1789
    1CHOL    R513302  14.424  20.087   5.878 -0.0368  0.0740 -0.1316
    1CHOL    C113303  14.322  20.148   5.515  0.0088  0.3076 -0.1080
    1CHOL    C213304  14.291  20.403   5.153  0.2732  0.0629 -0.0485
    1CHOL   ROH13305  12.027  18.110   2.875 -0.2513 -0.0771 -0.0574
    1CHOL    R113306  12.094  18.013   3.132 -0.2455 -0.2405 -0.1192
    1CHOL    R213307  12.215  18.172   3.324  0.0769 -0.4554 -0.1380
    1CHOL    R313308  12.004  18.092   3.476  0.0447 -0.2070 -0.0475
    1CHOL    R413309  12.200  18.196   3.668  0.1480 -0.2031 -0.1508
    1CHOL    R513310  12.105  18.000   3.673  0.0143 -0.1385  0.0016
    1CHOL    C113311  11.993  18.136   4.011  0.1591  0.1769 -0.0733
    1CHOL    C213312  12.074  18.250   4.316 -0.3889  0.0837  0.1455
    1CHOL   ROH13313  13.099  16.584   3.139 -0.2755  0.1170 -0.0409
    1CHOL    R113314  13.024  16.451   3.377 -0.0699 -0.0238 -0.0508
    1CHOL    R213315  13.175  16.249   3.489  0.1677  0.0890 -0.1526
    1CHOL    R313316  13.164  16.407   3.710  0.0839  0.0222 -0.1095
    1CHOL    R413317  13.239  16.143   3.812  0.0915  0.0094 -0.1639
    1CHOL    R513318  13.072  16.265   3.880  0.0580 -0.0360 -0.1754
    1CHOL    C113319  13.265  16.229   4.207 -0.0315 -0.0996 -0.1301
    1CHOL    C213320  13.233  16.283   4.593  0.0431  0.2580 -0.1287
    1CHOL   ROH13321  10.159   1.518   6.677  0.1691 -0.0452  0.0487
    1CHOL    R113322  10.037   1.606   6.437  0.1331  0.0751  0.1099
    1CHOL    R213323  10.142   1.810   6.284  0.1831  0.0647  0.1267
    1CHOL    R313324  10.129   1.624   6.086  0.0286  0.1188  0.0853
    1CHOL    R413325  10.130   1.882   5.946  0.2978  0.1454  0.1395
    1CHOL    R513326   9.984   1.722   5.922  0.1457  0.2928  0.0856
    1CHOL    C113327  10.111   1.750   5.563  0.2197  0.2431  0.1079
    1CHOL    C213328   9.985   1.540   5.353 -0.0849 -0.0262 -0.2914
    1CHOL   ROH13329  18.021  21.368   6.304 -0.1085 -0.1445  0.0881
    1CHOL    R113330  18.072  21.294   6.035 -0.0614 -0.0613  0.0742
    1CHOL    R213331  17.870  21.253   5.851 -0.0290 -0.0436  0.0380
    1CHOL    R313332  18.009  21.436   5.706 -0.0410  0.0187  0.1037
    1CHOL    R413333  17.798  21.341   5.525  0.0273 -0.0145  0.0333
    1CHOL    R513334  18.012  21.345   5.484  0.0401  0.0516  0.0890
    1CHOL    C113335  17.887  21.564   5.198  0.0488  0.0613  0.0922
    1CHOL    C213336  17.715  21.710   4.948  0.0345  0.1655  0.0919
    1CHOL   ROH13337   9.139  21.301   2.384 -0.0093 -0.2851  0.2235
    1CHOL    R113338   9.086  21.312   2.662  0.1132 -0.1286  0.2427
    1CHOL    R213339   9.257  21.434   2.842  0.1158  0.1200  0.0812
    1CHOL    R313340   9.034  21.573   2.910  0.0488  0.0122  0.0830
    1CHOL    R413341   9.235  21.655   3.106  0.0036  0.1043  0.0847
    1CHOL    R513342   9.037  21.577   3.149  0.0427  0.0097  0.0811
    1CHOL    C113343   9.012  21.915   3.324 -0.1247 -0.0061  0.0885
    1CHOL    C213344   9.169  22.212   3.447  0.0446  0.3478 -0.0820
    1CHOL   ROH13345  17.848  16.765   3.072 -0.1309 -0.0258  0.0471
    1CHOL    R113346  17.863  16.590   3.294 -0.0340 -0.0028  0.0589
    1CHOL    R213347  18.070  16.599   3.476  0.0437  0.0188 -0.0307
    1CHOL    R313348  17.868  16.623   3.656  0.1199  0.0341  0.0542
    1CHOL    R413349  18.092  16.515   3.811  0.1451 -0.0891 -0.0635
    1CHOL    R513350  17.891  16.432   3.798  0.1105 -0.0175 -0.0120
    1CHOL    C113351  17.914  16.489   4.174  0.2758 -0.1375 -0.0028
    1CHOL    C213352  18.011  16.259   4.376  0.0984 -0.1731  0.1729
    1CHOL   ROH13353  19.755  18.501   3.661 -0.0969  0.0974  0.0091
    1CHOL    R113354  19.837  18.594   3.915  0.0146 -0.0280  0.0212
    1CHOL    R213355  19.692  18.544   4.145  0.0015  0.0378  0.0324
    1CHOL    R313356  19.928  18.444   4.234 -0.0669 -0.1806 -0.0272
    1CHOL    R413357  19.789  18.534   4.477  0.2302  0.2906 -0.0247
    1CHOL    R513358  19.990  18.590   4.414  0.2643 -0.0542 -0.2388
    1CHOL    C113359  20.067  18.435   4.753  0.2993  0.2328 -0.1138
    1CHOL    C213360  20.231  18.404   5.097 -0.3580 -0.0543 -0.0005
    1CHOL   ROH13361  27.878  15.938   5.359  0.1697 -0.0632  0.1440
    1CHOL    R113362  28.026  16.073   5.159 -0.0567 -0.0219  0.0006
    1CHOL    R213363  28.280  15.994   5.084  0.0001  0.2083 -0.0482
    1CHOL    R313364  28.170  15.990   4.835 -0.0959 -0.0652 -0.0062
    1CHOL    R413365  28.458  16.015   4.788 -0.1259  0.0628 -0.1371
    1CHOL    R513366  28.302  16.145   4.709 -0.2328 -0.0920 -0.1892
    1CHOL    C113367  28.459  16.023   4.383 -0.2894 -0.2785 -0.1494
    1CHOL    C213368  28.812  16.052   4.095 -0.1526  0.0002  0.1046
    1CHOL   ROH13369  21.027  14.514   2.919  0.2818 -0.2078 -0.2143
    1CHOL    R113370  21.138  14.458   3.174 -0.0873 -0.1415 -0.0308
    1CHOL    R213371  20.982  14.394   3.394 -0.3982 -0.4737 -0.3263
    1CHOL    R313372  21.144  14.176   3.403 -0.0747 -0.2322 -0.1453
    1CHOL    R413373  21.028  14.192   3.671 -0.3350 -0.3655 -0.2587
    1CHOL    R513374  21.239  14.181   3.622 -0.2756 -0.0565 -0.0642
    1CHOL    C113375  21.207  13.870   3.840  0.0052 -0.0757 -0.0494
    1CHOL    C213376  20.949  13.685   3.885  0.0419 -0.0156  0.3297
    1CHOL   ROH13377   2.310   6.666   4.968 -0.0664 -0.0191 -0.0786
    1CHOL    R113378   2.268   6.923   4.857 -0.1420  0.0062  0.0084
    1CHOL    R213379   2.197   7.142   5.009  0.0752 -0.0055  0.1236
    1CHOL    R313380   2.415   7.254   4.892 -0.0347 -0.0274 -0.1077
    1CHOL    R413381   2.235   7.479   4.945  0.1480  0.0304  0.3418
    1CHOL    R513382   2.325   7.427   4.753 -0.1567  0.1331  0.1597
    1CHOL    C113383   2.462   7.781   4.796  0.0872  0.0307  0.2518
    1CHOL    C213384   2.323   8.119   4.617 -0.0553  0.2358  0.0872
    1CHOL   ROH13385  15.649   7.614   3.895  0.1565 -0.1225 -0.0276
    1CHOL    R113386  15.595   7.629   4.173  0.0411  0.0573 -0.0578
    1CHOL    R213387  15.776   7.544   4.364 -0.1389 -0.0582  0.0637
    1CHOL    R313388  15.741   7.796   4.462  0.0886  0.0259 -0.0632
    1CHOL    R413389  15.883   7.652   4.675 -0.2824 -0.0828  0.1223
    1CHOL    R513390  15.696   7.763   4.695 -0.1663  0.1642 -0.0882
    1CHOL    C113391  15.912   7.950   4.947 -0.1523 -0.0181  0.0374
    1CHOL    C213392  16.194   7.938   5.182  0.0197  0.1377  0.0669
    1CHOL   ROH13393  10.860  11.944   3.522  0.0815 -0.0839 -0.0619
    1CHOL    R113394  10.930  12.075   3.763  0.0259 -0.0759 -0.0504
    1CHOL    R213395  10.750  12.230   3.906 -0.0066 -0.0713 -0.0971
    1CHOL    R313396  10.821  12.066   4.111 -0.0536 -0.0641 -0.0747
    1CHOL    R413397  10.757  12.322   4.239  0.1309  0.0064 -0.1201
    1CHOL    R513398  10.941  12.207   4.262  0.0692 -0.0986 -0.1389
    1CHOL    C113399  10.826  12.221   4.625  0.1669  0.0585 -0.1126
    1CHOL    C213400  10.723  12.182   4.979 -0.0407  0.1367  0.3881
    1CHOL   ROH13401  15.456  12.891   2.878  0.0430  0.0511  0.0733
    1CHOL    R113402  15.301  12.927   3.112  0.1219  0.1764  0.1084
    1CHOL    R213403  15.223  12.715   3.272 -0.2106  0.2072  0.0018
    1CHOL    R313404  15.341  12.861   3.468  0.0578 -0.0899  0.0672
    1CHOL    R413405  15.134  12.706   3.606 -0.2594  0.2701 -0.0098
    1CHOL    R513406  15.161  12.923   3.614  0.1634  0.2155  0.0691
    1CHOL    C113407  15.193  12.838   3.984 -0.0358  0.0278  0.0448
    1CHOL    C213408  15.256  12.780   4.364  0.0216 -0.0594  0.2611
    1CHOL   ROH13409  20.489  18.123   6.715 -0.2700  0.1673  0.0509
    1CHOL    R113410  20.331  18.153   6.482 -0.1592  0.0446 -0.0404
    1CHOL    R213411  20.414  18.302   6.264 -0.0920 -0.0034 -0.0446
    1CHOL    R313412  20.364  18.072   6.128  0.0448 -0.0614  0.0004
    1CHOL    R413413  20.420  18.270   5.920 -0.3335  0.0054 -0.0522
    1CHOL    R513414  20.244  18.142   5.933 -0.1913 -0.1871  0.0929
    1CHOL    C113415  20.377  18.036   5.592 -0.3456 -0.0440 -0.0143
    1CHOL    C213416  20.561  18.028   5.280  0.2083 -0.1288  0.3010
    1CHOL   ROH13417  13.612  14.898   2.871 -0.2440  0.0790  0.1884
    1CHOL    R113418  13.775  14.857   3.099 -0.1098 -0.0018  0.0802
    1CHOL    R213419  13.821  15.055   3.286  0.0122 -0.0626  0.1174
    1CHOL    R313420  13.731  14.866   3.460  0.1046 -0.1129  0.1105
    1CHOL    R413421  13.815  15.090   3.630  0.1905 -0.1614  0.1313
    1CHOL    R513422  13.879  14.882   3.647  0.2017 -0.1654  0.0384
    1CHOL    C113423  13.726  14.933   3.993  0.3811 -0.2662  0.1329
    1CHOL    C213424  13.441  14.994   4.299  0.1027  0.2342 -0.0765
    1CHOL   ROH13425   0.874   2.345   5.924 -0.0314  0.2872  0.1155
    1CHOL    R113426   0.931   2.595   5.803  0.0103  0.1915 -0.0658
    1CHOL    R213427   1.152   2.636   5.644  0.0308  0.0466 -0.0710
    1CHOL    R313428   0.968   2.723   5.465  0.0635 -0.0635 -0.1598
    1CHOL    R413429   1.220   2.850   5.382  0.0280  0.1178 -0.0143
    1CHOL    R513430   1.030   2.951   5.422 -0.0665 -0.0140 -0.1031
    1CHOL    C113431   1.086   3.057   5.060  0.0571  0.0559 -0.0646
    1CHOL    C213432   1.163   3.079   4.720  0.0784 -0.3311 -0.4156
    1CHOL   ROH13433   9.882  17.046   2.980  0.0239 -0.2252 -0.0798
    1CHOL    R113434   9.976  16.913   3.211  0.0273 -0.1494 -0.0377
    1CHOL    R213435   9.979  17.031   3.461 -0.0753 -0.1088 -0.0595
    1CHOL    R313436   9.839  16.809   3.531  0.0009 -0.1549 -0.0495
    1CHOL    R413437   9.901  16.940   3.785 -0.0014 -0.1375 -0.0492
    1CHOL    R513438   9.944  16.733   3.733  0.0556 -0.1275 -0.0635
    1CHOL    C113439   9.725  16.679   4.040  0.1131 -0.1975 -0.0339
    1CHOL    C213440   9.372  16.747   4.272 -0.3548  0.0062  0.1447
    1CHOL   ROH13441  20.697  19.950   3.835  0.0672  0.1162 -0.0764
    1CHOL    R113442  20.786  20.011   4.097  0.1466  0.1723 -0.1174
    1CHOL    R213443  20.803  19.822   4.296 -0.0255  0.2669 -0.0226
    1CHOL    R313444  21.059  19.911   4.315  0.0661  0.0255 -0.0775
    1CHOL    R413445  21.025  19.728   4.544 -0.1528  0.2229  0.0766
    1CHOL    R513446  21.095  19.936   4.551  0.0602  0.1725 -0.0825
    1CHOL    C113447  21.395  19.758   4.706 -0.1406 -0.0294  0.0828
    1CHOL    C213448  21.522  19.552   4.782 -0.0957 -0.1524  0.1681
    1CHOL   ROH13449  10.927   6.049   6.421  0.2667  0.0621  0.1665
    1CHOL    R113450  11.021   5.867   6.226  0.3481  0.0340  0.2315
    1CHOL    R213451  10.912   5.852   5.972  0.2030 -0.2599  0.3077
    1CHOL    R313452  11.170   5.889   5.894  0.1161 -0.0203  0.1217
    1CHOL    R413453  11.068   5.682   5.714  0.2192 -0.2187  0.2898
    1CHOL    R513454  11.248   5.670   5.837  0.3144  0.0330  0.1798
    1CHOL    C113455  11.400   5.618   5.492  0.1471  0.0302  0.1048
    1CHOL    C213456  11.608   5.545   5.162 -0.0053  0.0916 -0.0880
    1CHOL   ROH13457  28.042  23.631   3.509 -0.0351 -0.0815  0.0296
    1CHOL    R113458  28.094  23.769   3.751  0.3213  0.0597 -0.1186
    1CHOL    R213459  27.960  23.712   3.986  0.1121  0.6991 -0.0549
    1CHOL    R313460  28.211  23.682   4.084  0.0345  0.0919 -0.0087
    1CHOL    R413461  28.041  23.696   4.321  0.0531  0.8311 -0.0348
    1CHOL    R513462  28.216  23.819   4.280  0.4105  0.2974 -0.1586
    1CHOL    C113463  28.324  23.659   4.609 -0.0543  0.3380  0.0202
    1CHOL    C213464  28.604  23.801   4.855 -0.1954  0.0024 -0.0243
    1CHOL   ROH13465  11.184  14.409   6.689  0.1896 -0.1591  0.1306
    1CHOL    R113466  11.290  14.326   6.440  0.1355 -0.2288  0.1304
    1CHOL    R213467  11.198  14.102   6.307 -0.0036 -0.1750  0.1353
    1CHOL    R313468  11.164  14.278   6.102  0.1017 -0.1578  0.1324
    1CHOL    R413469  11.176  14.016   5.973  0.4057 -0.1311  0.0924
    1CHOL    R513470  11.298  14.190   5.925  0.3496 -0.0426  0.2551
    1CHOL    C113471  11.132  14.131   5.586  0.7430 -0.0895  0.0646
    1CHOL    C213472  11.179  14.018   5.196  0.2564  0.0519 -0.0615
    1CHOL   ROH13473   2.513  16.401   5.231  0.3125 -0.0695  0.1143
    1CHOL    R113474   2.583  16.226   5.020  0.0198 -0.0525 -0.0024
    1CHOL    R213475   2.556  16.296   4.754 -0.0202  0.1065  0.0418
    1CHOL    R313476   2.819  16.229   4.742 -0.0983 -0.1902 -0.1055
    1CHOL    R413477   2.751  16.306   4.468 -0.1150  0.0960 -0.0233
    1CHOL    R513478   2.844  16.119   4.531 -0.3045 -0.0616 -0.1986
    1CHOL    C113479   3.111  16.248   4.291 -0.2434 -0.1886 -0.1995
    1CHOL    C213480   3.366  16.189   3.931  0.1061 -0.1457 -0.1595
    1CHOL   ROH13481  15.811   4.417   6.760 -0.0784  0.3654  0.0328
    1CHOL    R113482  15.589   4.257   6.688 -0.0087  0.2443  0.0838
    1CHOL    R213483  15.328   4.332   6.739 -0.0447  0.1749  0.0050
    1CHOL    R313484  15.298   4.290   6.472  0.0098  0.0227  0.0218
    1CHOL    R413485  15.025   4.283   6.579 -0.0056  0.0118 -0.0200
    1CHOL    R513486  15.121   4.130   6.456  0.0533 -0.0309  0.0782
    1CHOL    C113487  14.821   4.214   6.236  0.0683 -0.2261 -0.0189
    1CHOL    C213488  14.516   4.194   6.270 -0.2849 -0.0758  0.0120
    1CHOL   ROH13489  25.188  21.208   4.826 -0.1532 -0.0334  0.1533
    1CHOL    R113490  25.398  21.277   5.003 -0.1051  0.1182  0.0409
    1CHOL    R213491  25.444  21.537   5.084 -0.3071  0.1445  0.0912
    1CHOL    R313492  25.427  21.428   5.333 -0.0463  0.0456  0.0680
    1CHOL    R413493  25.456  21.717   5.379 -0.3405  0.0618  0.1420
    1CHOL    R513494  25.579  21.558   5.465 -0.1163  0.1709  0.0225
    1CHOL    C113495  25.447  21.719   5.784 -0.1152 -0.0791  0.1498
    1CHOL    C213496  25.475  21.606   6.073 -0.3642 -0.5107  0.3569
    1CHOL   ROH13497  18.001  14.183   2.978  0.0579 -0.0677  0.0828
    1CHOL    R113498  18.071  14.152   3.251  0.0053 -0.0097  0.1038
    1CHOL    R213499  17.911  14.244   3.457 -0.0791 -0.0434  0.0575
    1CHOL    R313500  17.930  13.987   3.542 -0.0041 -0.0276  0.0883
    1CHOL    R413501  17.839  14.135   3.777 -0.1550 -0.0468  0.0387
    1CHOL    R513502  18.011  14.003   3.766 -0.0975  0.0251  0.1168
    1CHOL    C113503  17.814  13.830   4.043 -0.1290 -0.0339  0.0567
    1CHOL    C213504  17.915  13.449   4.071  0.3646 -0.2150  0.0439
    1CHOL   ROH13505  18.693  13.367   3.032  0.0254 -0.4100 -0.1419
    1CHOL    R113506  18.624  13.349   3.306 -0.0916 -0.2683 -0.1596
    1CHOL    R213507  18.607  13.108   3.440 -0.0451 -0.1977 -0.0130
    1CHOL    R313508  18.782  13.227   3.610 -0.1727 -0.0095 -0.0120
    1CHOL    R413509  18.637  13.032   3.775  0.0340 -0.1552 -0.0113
    1CHOL    R513510  18.660  13.245   3.816 -0.1915 -0.1320 -0.0156
    1CHOL    C113511  18.819  13.100   4.131 -0.0400  0.0461 -0.0094
    1CHOL    C213512  18.656  12.978   4.461  0.2645 -0.0940 -0.1658
    1CHOL   ROH13513  16.042  18.007   3.420  0.0677  0.1162 -0.1953
    1CHOL    R113514  16.094  18.104   3.680 -0.2269  0.2573 -0.1848
    1CHOL    R213515  15.896  18.204   3.845 -0.5691 -0.4405 -0.1430
    1CHOL    R313516  15.993  18.019   4.019  0.0916 -0.1615 -0.1853
    1CHOL    R413517  15.899  18.239   4.189 -0.4178 -0.3851 -0.1492
    1CHOL    R513518  16.097  18.148   4.191 -0.1397  0.1692 -0.2797
    1CHOL    C113519  15.992  18.085   4.553  0.2906 -0.0908 -0.1925
    1CHOL    C213520  16.089  18.151   4.931  0.0080  0.2025 -0.2516
    1CHOL   ROH13521   2.917  19.146   5.416 -0.1134 -0.1182 -0.1962
    1CHOL    R113522   2.810  19.356   5.259  0.0265  0.0361 -0.0888
    1CHOL    R213523   2.968  19.552   5.145  0.1820 -0.1211 -0.1517
    1CHOL    R313524   2.844  19.474   4.917 -0.0542  0.0606 -0.0882
    1CHOL    R413525   3.046  19.668   4.829 -0.1205  0.1032 -0.1473
    1CHOL    R513526   2.832  19.673   4.784 -0.1662  0.1597  0.0682
    1CHOL    C113527   2.974  19.662   4.430 -0.5185  0.4045 -0.0852
    1CHOL    C213528   3.290  19.616   4.314  0.2327  0.2620  0.2373
    1CHOL   ROH13529   9.438  12.039   6.127  0.0890 -0.2678 -0.0916
    1CHOL    R113530   9.560  12.019   5.872  0.0118 -0.1760 -0.1359
    1CHOL    R213531   9.536  11.794   5.714 -0.0721 -0.1008 -0.2280
    1CHOL    R313532   9.448  11.972   5.529 -0.0944 -0.0045 -0.1265
    1CHOL    R413533   9.579  11.760   5.373 -0.2417 -0.0036 -0.2603
    1CHOL    R513534   9.621  11.974   5.362 -0.1680 -0.0126 -0.2061
    1CHOL    C113535   9.521  11.908   5.000 -0.3611  0.1434 -0.1837
    1CHOL    C213536   9.475  11.959   4.633  0.0734 -0.2057 -0.1907
    1CHOL   ROH13537   1.896  27.357   6.143  0.2373  0.0288 -0.1499
    1CHOL    R113538   1.818  27.186   5.932  0.2172 -0.0100 -0.1114
    1CHOL    R213539   1.567  27.197   5.817  0.1913 -0.0562 -0.0658
    1CHOL    R313540   1.709  27.224   5.587  0.1463 -0.0687 -0.0949
    1CHOL    R413541   1.430  27.215   5.500  0.1152  0.2520 -0.0180
    1CHOL    R513542   1.592  27.089   5.428 -0.0312  0.1344 -0.1362
    1CHOL    C113543   1.484  27.252   5.100  0.0286  0.4196 -0.0174
    1CHOL    C213544   1.246  27.228   4.869  0.0156 -0.2557  0.1938
    1CHOL   ROH13545  19.991  13.546   2.913 -0.0951 -0.0006 -0.0748
    1CHOL    R113546  19.995  13.578   3.195  0.0289 -0.1931 -0.0540
    1CHOL    R213547  19.769  13.642   3.341  0.1590  0.0312  0.0474
    1CHOL    R313548  19.836  13.419   3.481 -0.1173 -0.1609 -0.1158
    1CHOL    R413549  19.706  13.593   3.677  0.3509 -0.0127  0.0788
    1CHOL    R513550  19.902  13.501   3.696  0.2115 -0.3748 -0.1279
    1CHOL    C113551  19.733  13.355   4.004  0.2032 -0.2185 -0.0561
    1CHOL    C213552  19.659  13.174   4.423  0.1098 -0.3805 -0.1461
    1CHOL   ROH13553  17.001  16.214   2.984 -0.0981  0.1364  0.0816
    1CHOL    R113554  17.006  16.349   3.233  0.0470 -0.0518  0.1822
    1CHOL    R213555  16.777  16.439   3.359  0.1488  0.2092  0.1856
    1CHOL    R313556  16.874  16.292   3.567 -0.1255 -0.0947  0.1075
    1CHOL    R413557  16.691  16.485   3.690  0.0672  0.0371  0.1902
    1CHOL    R513558  16.899  16.451   3.744  0.0036 -0.2757  0.2544
    1CHOL    C113559  16.731  16.376   4.078 -0.2378 -0.3486  0.1196
    1CHOL    C213560  16.745  16.477   4.401 -0.0382 -0.1874 -0.1046
    1CHOL   ROH13561   4.929   6.454   3.737 -0.1959  0.0790  0.1331
    1CHOL    R113562   5.088   6.612   3.910  0.0191 -0.1079  0.1104
    1CHOL    R213563   4.980   6.771   4.108  0.2248  0.1258  0.0390
    1CHOL    R313564   5.150   6.631   4.268 -0.0155 -0.0887  0.1155
    1CHOL    R413565   5.109   6.886   4.407  0.4105  0.0602 -0.0144
    1CHOL    R513566   5.301   6.797   4.353  0.2674 -0.2967  0.0365
    1CHOL    C113567   5.344   6.823   4.731  0.2932 -0.1794  0.0263
    1CHOL    C213568   5.485   6.766   5.032  0.2524  0.1470 -0.0381
    1CHOL   ROH13569  19.556  11.316   6.657  0.1251 -0.1442  0.0253
    1CHOL    R113570  19.534  11.182   6.408 -0.0585 -0.1642  0.0505
    1CHOL    R213571  19.296  11.163   6.270 -0.0930  0.1217  0.0616
    1CHOL    R313572  19.442  11.271   6.068  0.0451 -0.1042  0.0384
    1CHOL    R413573  19.219  11.135   5.934 -0.1886  0.2387  0.0731
    1CHOL    R513574  19.431  11.107   5.893 -0.2348 -0.0908  0.0402
    1CHOL    C113575  19.312  11.219   5.549 -0.1148  0.0946  0.0581
    1CHOL    C213576  19.239  10.927   5.278  0.2480 -0.2361 -0.1051
    1CHOL   ROH13577  26.025  20.906   3.826 -0.0713 -0.2090 -0.0765
    1CHOL    R113578  25.980  20.729   4.042 -0.1131 -0.2140 -0.0904
    1CHOL    R213579  25.898  20.816   4.292  0.1329 -0.1874 -0.0211
    1CHOL    R313580  25.699  20.635   4.253 -0.0770  0.0183  0.0672
    1CHOL    R413581  25.741  20.639   4.543  0.3977 -0.3659  0.0240
    1CHOL    R513582  25.742  20.463   4.414  0.0538 -0.2178 -0.2056
    1CHOL    C113583  25.462  20.366   4.654  0.3547 -0.2767  0.1332
    1CHOL    C213584  25.594  20.379   5.068  0.3357 -0.0799 -0.2284
    1CHOL   ROH13585  14.983  18.075   3.434 -0.1509  0.0478 -0.1034
    1CHOL    R113586  15.056  17.952   3.679 -0.1724 -0.2286 -0.2324
    1CHOL    R213587  15.069  18.092   3.917  0.3037 -0.3782 -0.1657
    1CHOL    R313588  14.900  17.897   4.003 -0.0032 -0.1047 -0.1267
    1CHOL    R413589  15.017  18.006   4.248  0.4451 -0.4559 -0.1625
    1CHOL    R513590  15.013  17.797   4.188 -0.0153 -0.4287 -0.2835
    1CHOL    C113591  14.828  17.772   4.520  0.2392 -0.2444 -0.1239
    1CHOL    C213592  14.653  17.676   4.798  0.1906 -0.1128 -0.0108
    1CHOL   ROH13593  16.991  14.280   6.331 -0.4276  0.1083  0.1126
    1CHOL    R113594  16.992  14.433   6.093 -0.1182  0.0746  0.0864
    1CHOL    R213595  17.118  14.348   5.862 -0.1595 -0.1518  0.1407
    1CHOL    R313596  16.874  14.390   5.752 -0.0659  0.1942  0.0538
    1CHOL    R413597  17.058  14.380   5.524 -0.0234 -0.2777  0.1043
    1CHOL    R513598  16.916  14.539   5.569  0.2352  0.0005 -0.0391
    1CHOL    C113599  16.794  14.437   5.222  0.1437 -0.0263  0.0016
    1CHOL    C213600  16.675  14.334   4.788 -0.1379 -0.0267  0.0751
    1CHOL   ROH13601  13.415  10.363   3.494  0.0570  0.0075 -0.1526
    1CHOL    R113602  13.483  10.263   3.750 -0.0854  0.0280 -0.1063
    1CHOL    R213603  13.738  10.279   3.853 -0.1010 -0.1326 -0.0441
    1CHOL    R313604  13.612  10.398   4.062 -0.0675  0.0192 -0.1093
    1CHOL    R413605  13.878  10.329   4.165 -0.1102 -0.0674 -0.0501
    1CHOL    R513606  13.686  10.275   4.254 -0.1482  0.0637 -0.0479
    1CHOL    C113607  13.841  10.470   4.543 -0.0841  0.1131 -0.1148
    1CHOL    C213608  13.971  10.586   4.865 -0.0390  0.1042  0.0378
    1CHOL   ROH13609   1.337   4.769   5.042 -0.0034  0.0808  0.0299
    1CHOL    R113610   1.549   4.711   4.863 -0.0736 -0.1471  0.0175
    1CHOL    R213611   1.803   4.816   4.894 -0.0712 -0.0741 -0.2370
    1CHOL    R313612   1.877   4.555   4.884 -0.0483 -0.0848  0.0969
    1CHOL    R413613   2.121   4.705   4.817 -0.1848 -0.1449 -0.6264
    1CHOL    R513614   2.031   4.544   4.700 -0.3802 -0.3816 -0.1791
    1CHOL    C113615   2.376   4.395   4.762 -0.2294 -0.1962 -0.5398
    1CHOL    C213616   2.724   4.454   4.537  0.1312  0.2196  0.0807
    1CHOL   ROH13617   5.552   3.353   5.777  0.0856 -0.0275 -0.0369
    1CHOL    R113618   5.573   3.318   5.497  0.0647  0.0809 -0.0529
    1CHOL    R213619   5.607   3.531   5.323  0.1717  0.1404  0.0344
    1CHOL    R313620   5.822   3.386   5.241  0.0974  0.0642 -0.0246
    1CHOL    R413621   5.762   3.565   5.016  0.0313  0.0007 -0.0530
    1CHOL    R513622   5.782   3.348   5.008 -0.0235 -0.0045  0.0083
    1CHOL    C113623   6.055   3.449   4.760 -0.1203 -0.1524 -0.1593
    1CHOL    C213624   6.365   3.463   4.483 -0.1684  0.0315  0.1800
    1CHOL   ROH13625  18.518  15.890   6.559  0.1687 -0.1585  0.1052
    1CHOL    R113626  18.651  15.805   6.324  0.0071 -0.2187  0.0336
    1CHOL    R213627  18.516  15.732   6.094 -0.1436  0.0468  0.0336
    1CHOL    R313628  18.677  15.919   5.979  0.0568 -0.0951  0.0775
    1CHOL    R413629  18.559  15.773   5.754 -0.2096  0.1674  0.0390
    1CHOL    R513630  18.771  15.807   5.790 -0.1493 -0.1210 -0.0133
    1CHOL    C113631  18.735  15.971   5.447 -0.0600  0.1043  0.0833
    1CHOL    C213632  18.758  16.080   5.163 -0.2107 -0.0591 -0.1268
    1CHOL   ROH13633   9.586  15.982   5.894 -0.2097 -0.1406  0.0015
    1CHOL    R113634   9.654  16.034   5.625 -0.0495 -0.1742  0.0349
    1CHOL    R213635   9.701  15.832   5.442 -0.2454 -0.2003  0.0149
    1CHOL    R313636   9.512  15.963   5.297 -0.0295  0.0732 -0.0300
    1CHOL    R413637   9.669  15.814   5.098 -0.4340 -0.4919  0.0438
    1CHOL    R513638   9.626  16.028   5.097  0.0358 -0.3836 -0.1548
    1CHOL    C113639   9.473  15.926   4.762 -0.3412 -0.4050  0.0184
    1CHOL    C213640   9.376  15.726   4.444 -0.0218 -0.0241  0.0877
    1CHOL   ROH13641  10.372  11.446   3.511 -0.0368 -0.4045 -0.0088
    1CHOL    R113642  10.404  11.451   3.793  0.1915 -0.1395 -0.0346
    1CHOL    R213643  10.507  11.670   3.927  0.0523  0.0973 -0.2945
    1CHOL    R313644  10.277  11.649   4.070  0.1875 -0.0606 -0.0946
    1CHOL    R413645  10.477  11.735   4.265  0.2472  0.2653 -0.3083
    1CHOL    R513646  10.346  11.562   4.282  0.4433  0.1393 -0.0968
    1CHOL    C113647  10.244  11.754   4.596  0.4876  0.2148 -0.1286
    1CHOL    C213648  10.409  11.807   4.782 -0.0662 -0.2369  0.0705
    1CHOL   ROH13649  11.289  17.938   2.553  0.0638 -0.2324  0.1434
    1CHOL    R113650  11.159  17.953   2.804 -0.0151 -0.2398  0.1016
    1CHOL    R213651  11.105  17.729   2.956  0.2383 -0.2110  0.2237
    1CHOL    R313652  11.240  17.867   3.148  0.0120  0.0821  0.1812
    1CHOL    R413653  11.037  17.715   3.295  0.1919 -0.1575  0.2179
    1CHOL    R513654  11.071  17.930   3.306 -0.1206 -0.0876  0.1211
    1CHOL    C113655  11.123  17.837   3.672 -0.0476  0.1488  0.1747
    1CHOL    C213656  11.050  17.959   4.088 -0.0496 -0.1455  0.1408
    1CHOL   ROH13657  16.848  17.864   3.417 -0.4509  0.1602  0.1729
    1CHOL    R113658  16.972  17.765   3.652 -0.3613 -0.0696  0.0321
    1CHOL    R213659  17.087  17.931   3.841  0.0240 -0.2718 -0.0180
    1CHOL    R313660  16.921  17.798   4.011  0.0070 -0.1128  0.0922
    1CHOL    R413661  17.095  17.959   4.185 -0.0676  0.1257 -0.0427
    1CHOL    R513662  17.061  17.744   4.198 -0.0266  0.1287  0.1936
    1CHOL    C113663  16.945  17.851   4.546 -0.1368  0.5062  0.0463
    1CHOL    C213664  17.250  17.919   4.834 -0.2807 -0.2056 -0.0258
    1CHOL   ROH13665  16.026  17.456   6.555  0.2000 -0.0847 -0.1504
    1CHOL    R113666  15.954  17.392   6.288  0.1530 -0.2016 -0.1096
    1CHOL    R213667  15.870  17.583   6.107 -0.1499 -0.3196 -0.0961
    1CHOL    R313668  16.070  17.479   5.955 -0.0972 -0.1082 -0.1753
    1CHOL    R413669  15.908  17.638   5.768 -0.1847 -0.0506 -0.0589
    1CHOL    R513670  15.965  17.429   5.746 -0.0772 -0.0102 -0.2123
    1CHOL    C113671  16.118  17.573   5.427 -0.1555  0.3044 -0.1116
    1CHOL    C213672  16.380  17.727   5.142 -0.0091  0.2512  0.0869
    1CHOL   ROH13673  16.525   5.167   6.290  0.3536  0.0840  0.0174
    1CHOL    R113674  16.408   5.112   6.038  0.1258  0.1335  0.1101
    1CHOL    R213675  16.556   5.101   5.804 -0.0637  0.0512 -0.0078
    1CHOL    R313676  16.440   4.856   5.782 -0.2051  0.1074  0.0899
    1CHOL    R413677  16.584   4.893   5.530 -0.2328 -0.0495  0.0496
    1CHOL    R513678  16.374   4.841   5.553 -0.2580  0.0741  0.1070
    1CHOL    C113679  16.492   4.541   5.350 -0.4641 -0.0553  0.1748
    1CHOL    C213680  16.769   4.285   5.217 -0.0049  0.1640 -0.1165
    1DPPC   NC313681  17.587  18.100   2.799  0.1599 -0.1519 -0.1005
    1DPPC   PO413682  17.264  17.930   3.014 -0.2221  0.1098  0.1759
    1DPPC   GL113683  17.351  18.013   3.371 -0.1862  0.0404  0.1678
    1DPPC   GL213684  17.529  17.779   3.588 -0.1896  0.3188 -0.0720
    1DPPC   C1A13685  17.453  18.231   3.799 -0.1805 -0.0196 -0.1780
    1DPPC   C2A13686  17.481  18.266   4.262 -0.0251  0.1531  0.0153
    1DPPC   C3A13687  17.574  18.263   4.667 -0.0153 -0.0487  0.2043
    1DPPC   C4A13688  17.502  18.497   5.020 -0.1085 -0.0567 -0.3848
    1DPPC   C1B13689  17.537  17.787   3.970 -0.1973  0.1582  0.0712
    1DPPC   C2B13690  17.527  17.765   4.399 -0.2152 -0.0214 -0.0525
    1DPPC   C3B13691  17.561  17.545   4.846 -0.1798  0.1803  0.1497
    1DPPC   C4B13692  17.584  17.600   5.262  0.0824  0.0980 -0.1444
    1DPPC   NC313693  15.409  10.469   2.842 -0.2238  0.3324  0.0467
    1DPPC   PO413694  15.150  10.047   2.694 -0.0294 -0.1161  0.3785
    1DPPC   GL113695  14.912  10.041   3.129  0.0855 -0.0075  0.2083
    1DPPC   GL213696  15.086  10.313   3.317 -0.1393 -0.2913  0.1686
    1DPPC   C1A13697  14.800  10.006   3.633 -0.0399 -0.2739  0.1426
    1DPPC   C2A13698  14.812  10.096   4.055 -0.3174 -0.1728  0.1811
    1DPPC   C3A13699  14.832  10.122   4.478 -0.0778 -0.1037 -0.0866
    1DPPC   C4A13700  14.778  10.261   4.948  0.1374  0.0822  0.0090
    1DPPC   C1B13701  15.241  10.249   3.664 -0.0178 -0.0946 -0.0464
    1DPPC   C2B13702  15.266  10.339   4.133 -0.2435  0.1124  0.4327
    1DPPC   C3B13703  15.310  10.410   4.518 -0.0770 -0.4819  0.1133
    1DPPC   C4B13704  15.678  10.213   4.755 -0.0185  0.1425  0.0768
    1DPPC   NC313705   2.363  18.392   2.269  0.1428 -0.0413  0.0510
    1DPPC   PO413706   2.048  18.483   2.533  0.1629 -0.3562 -0.0108
    1DPPC   GL113707   1.769  18.623   2.902 -0.1098 -0.2503  0.2412
    1DPPC   GL213708   1.646  18.327   2.982  0.2032  0.0506  0.2052
    1DPPC   C1A13709   1.903  18.629   3.348 -0.1757  0.0680 -0.0059
    1DPPC   C2A13710   1.892  18.597   3.732 -0.1038  0.0116 -0.4473
    1DPPC   C3A13711   2.121  18.706   4.020  0.1188  0.0612 -0.1376
    1DPPC   C4A13712   2.481  18.675   4.341 -0.0760  0.0973  0.2727
    1DPPC   C1B13713   1.668  18.183   3.393 -0.0826 -0.1679 -0.2921
    1DPPC   C2B13714   1.847  17.918   3.678 -0.1628 -0.1022  0.1121
    1DPPC   C3B13715   1.984  17.945   4.047  0.1379 -0.1853 -0.0225
    1DPPC   C4B13716   1.782  17.779   4.436  0.1556  0.0237  0.1538
    1DPPC   NC313717  16.866  18.194   2.980  0.0711  0.4398  0.2510
    1DPPC   PO413718  16.422  18.206   2.788 -0.2377  0.0312 -0.0385
    1DPPC   GL113719  16.498  18.248   3.344  0.2515 -0.1019 -0.0826
    1DPPC   GL213720  16.323  18.554   3.513  0.0054 -0.1270  0.1246
    1DPPC   C1A13721  16.604  18.094   3.788 -0.2315 -0.1378 -0.1783
    1DPPC   C2A13722  16.580  18.067   4.259  0.0229  0.3056  0.1278
    1DPPC   C3A13723  16.504  18.223   4.668 -0.1091 -0.0452 -0.1101
    1DPPC   C4A13724  16.513  18.258   5.117 -0.3444  0.0046  0.1147
    1DPPC   C1B13725  16.317  18.506   3.961 -0.2062  0.0842  0.1433
    1DPPC   C2B13726  16.333  18.537   4.341  0.0364 -0.0604 -0.2231
    1DPPC   C3B13727  16.198  18.591   4.732  0.2724  0.1701  0.1107
    1DPPC   C4B13728  16.078  18.600   5.218  0.1777 -0.1751  0.0868
    1DPPC   NC313729  10.597  11.777   3.085  0.1148 -0.1969 -0.0493
    1DPPC   PO413730  11.037  11.597   3.014  0.2655  0.1778  0.1823
    1DPPC   GL113731  10.888  11.371   3.424 -0.0465 -0.2319  0.1723
    1DPPC   GL213732  10.772  11.010   3.364 -0.1385 -0.0223  0.2694
    1DPPC   C1A13733  10.959  11.449   3.802 -0.0799 -0.0576  0.0115
    1DPPC   C2A13734  10.975  11.623   4.275  0.2448  0.0901  0.1762
    1DPPC   C3A13735  10.901  11.716   4.679 -0.0003 -0.1770  0.0238
    1DPPC   C4A13736  11.168  11.687   4.997  0.0216  0.0784  0.2687
    1DPPC   C1B13737  10.684  11.025   3.728  0.2456  0.1404 -0.1432
    1DPPC   C2B13738  10.662  11.234   4.116  0.3230  0.2380 -0.1759
    1DPPC   C3B13739  10.668  11.296   4.535 -0.1677  0.1453 -0.0726
    1DPPC   C4B13740  10.770  11.210   4.838  0.1632  0.3591  0.0804
    1DPPC   NC313741  20.444  18.412   2.959 -0.1775 -0.0165 -0.2378
    1DPPC   PO413742  20.154  18.592   3.257  0.0513  0.0102 -0.0079
    1DPPC   GL113743  20.278  18.615   3.697  0.2316  0.1020  0.2466
    1DPPC   GL213744  20.218  18.906   3.758  0.0124  0.0300 -0.2168
    1DPPC   C1A13745  20.433  18.541   4.083  0.1417 -0.0262  0.0407
    1DPPC   C2A13746  20.574  18.836   4.411  0.0214 -0.0004  0.0140
    1DPPC   C3A13747  20.709  18.953   4.778  0.2210  0.2597 -0.1544
    1DPPC   C4A13748  20.710  19.109   5.167 -0.0225 -0.0791  0.3762
    1DPPC   C1B13749  20.195  18.977   4.173 -0.0267 -0.0436  0.2152
    1DPPC   C2B13750  20.124  19.107   4.570  0.0115 -0.2702  0.1567
    1DPPC   C3B13751  20.234  18.959   4.961  0.1017 -0.2646  0.1586
    1DPPC   C4B13752  20.230  18.903   5.386 -0.0811 -0.1602 -0.1110
    1DPPC   NC313753  14.951   8.952   2.760 -0.1217  0.1094 -0.1542
    1DPPC   PO413754  14.814   9.028   3.098 -0.1959 -0.0614  0.1344
    1DPPC   GL113755  14.850   9.243   3.496 -0.4539 -0.1902  0.1581
    1DPPC   GL213756  15.003   9.151   3.642 -0.2156 -0.2655  0.1530
    1DPPC   C1A13757  14.777   9.568   3.855 -0.1189  0.2138 -0.1744
    1DPPC   C2A13758  14.708   9.684   4.304  0.1253 -0.0346  0.0728
    1DPPC   C3A13759  14.710   9.744   4.683 -0.0621  0.0082  0.1040
    1DPPC   C4A13760  14.536   9.854   5.164 -0.0843  0.2127  0.1248
    1DPPC   C1B13761  15.032   9.284   4.110 -0.1404  0.1512 -0.0234
    1DPPC   C2B13762  15.114   9.472   4.520 -0.1994 -0.2121  0.5477
    1DPPC   C3B13763  15.193   9.471   4.880 -0.0024 -0.0964  0.2844
    1DPPC   C4B13764  15.329   9.565   5.243 -0.0933  0.3918 -0.0252
    1DPPC   NC313765  18.242  21.279   3.251  0.0221 -0.0789  0.2632
    1DPPC   PO413766  18.663  21.508   3.189 -0.1246 -0.0673 -0.0140
    1DPPC   GL113767  18.990  21.656   3.508  0.2667 -0.1680  0.0830
    1DPPC   GL213768  19.138  21.526   3.724  0.0809  0.3687 -0.0731
    1DPPC   C1A13769  19.040  22.020   3.878 -0.5010  0.1807 -0.0353
    1DPPC   C2A13770  19.018  22.296   4.213 -0.0030  0.1084 -0.1100
    1DPPC   C3A13771  19.326  22.566   4.304 -0.4390  0.1918 -0.0039
    1DPPC   C4A13772  19.797  22.660   4.095  0.1870 -0.0497 -0.1158
    1DPPC   C1B13773  19.047  21.255   4.059 -0.0119  0.0407  0.1263
    1DPPC   C2B13774  19.098  21.259   4.473  0.0293 -0.1826  0.1126
    1DPPC   C3B13775  18.989  21.112   4.841 -0.5156  0.0135 -0.1643
    1DPPC   C4B13776  19.045  21.034   5.217  0.1365 -0.2452  0.2256
    1DPPC   NC313777  22.303  17.798   2.282 -0.0120 -0.2888  0.1926
    1DPPC   PO413778  22.357  17.276   2.338 -0.0280  0.0596  0.0925
    1DPPC   GL113779  22.460  17.193   2.805 -0.1485  0.0185 -0.1463
    1DPPC   GL213780  22.129  17.126   2.977  0.1398 -0.0590  0.2443
    1DPPC   C1A13781  22.630  17.260   3.205 -0.2914  0.1370  0.0233
    1DPPC   C2A13782  22.570  17.132   3.612  0.4633  0.0051  0.0639
    1DPPC   C3A13783  22.124  17.098   3.902  0.2502 -0.0640 -0.0426
    1DPPC   C4A13784  22.140  17.052   4.390  0.1456  0.0681  0.2709
    1DPPC   C1B13785  22.080  17.290   3.413 -0.0656  0.1005  0.0163
    1DPPC   C2B13786  21.971  17.568   3.745  0.0261 -0.2401  0.1718
    1DPPC   C3B13787  22.021  17.487   4.219 -0.2560 -0.2161  0.0701
    1DPPC   C4B13788  22.364  17.541   4.501 -0.3711  0.1194 -0.0591
    1DPPC   NC313789  13.563  14.948   2.374 -0.1923 -0.1311 -0.0440
    1DPPC   PO413790  13.634  14.529   2.485  0.0392  0.4891 -0.0841
    1DPPC   GL113791  13.647  14.330   2.808 -0.2493  0.2453  0.2007
    1DPPC   GL213792  13.296  14.425   3.057  0.2084  0.0620  0.1841
    1DPPC   C1A13793  13.855  14.346   3.197 -0.0115  0.0369 -0.0840
    1DPPC   C2A13794  13.832  14.380   3.606 -0.0319  0.1270 -0.1390
    1DPPC   C3A13795  13.783  14.221   4.100 -0.1347  0.1941 -0.2534
    1DPPC   C4A13796  13.633  14.191   4.502  0.1056 -0.0431  0.0088
    1DPPC   C1B13797  13.346  14.508   3.439  0.1675 -0.3475  0.0953
    1DPPC   C2B13798  13.432  14.455   3.849  0.1666  0.0323 -0.1635
    1DPPC   C3B13799  13.333  14.534   4.267  0.4393  0.0286 -0.2243
    1DPPC   C4B13800  13.319  14.607   4.721 -0.0720 -0.0042  0.1375
    1DPPC   NC313801  21.431  11.620   2.458  0.0271  0.0223 -0.1198
    1DPPC   PO413802  21.700  11.621   2.937  0.2417 -0.1470  0.0506
    1DPPC   GL113803  21.575  11.620   3.347  0.1210 -0.3375 -0.0121
    1DPPC   GL213804  21.276  11.514   3.202  0.0700  0.1239 -0.1763
    1DPPC   C1A13805  21.573  11.545   3.775  0.0161  0.2786  0.0582
    1DPPC   C2A13806  21.630  11.505   4.224  0.0730  0.0159 -0.1386
    1DPPC   C3A13807  21.755  11.345   4.487  0.0482 -0.2356  0.3048
    1DPPC   C4A13808  21.952  11.195   4.961  0.0348 -0.1161  0.3457
    1DPPC   C1B13809  21.294  11.181   3.544  0.1352  0.1226  0.1081
    1DPPC   C2B13810  21.492  10.951   3.822  0.0522 -0.0483 -0.1160
    1DPPC   C3B13811  21.539  10.944   4.260 -0.1260 -0.0314 -0.4014
    1DPPC   C4B13812  21.419  11.076   4.763  0.0876 -0.1083 -0.0984
    1DPPC   NC313813  11.696  20.278   1.959  0.2570  0.0639 -0.1872
    1DPPC   PO413814  11.492  20.018   2.327  0.0784  0.0104  0.1044
    1DPPC   GL113815  11.536  20.035   2.798  0.2674 -0.0263 -0.0970
    1DPPC   GL213816  11.739  19.732   2.877 -0.0862  0.1422  0.0562
    1DPPC   C1A13817  11.462  20.267   3.144 -0.0212  0.0622  0.1412
    1DPPC   C2A13818  11.422  20.637   3.347  0.0895  0.3076 -0.0704
    1DPPC   C3A13819  11.264  20.780   3.737 -0.1697 -0.2881 -0.1916
    1DPPC   C4A13820  11.196  21.067   4.135  0.0241 -0.0012 -0.5029
    1DPPC   C1B13821  11.554  19.635   3.244  0.0330  0.1397  0.1022
    1DPPC   C2B13822  11.609  19.623   3.729  0.0304 -0.0070  0.3036
    1DPPC   C3B13823  11.547  19.555   4.107  0.1538  0.0994 -0.0152
    1DPPC   C4B13824  11.481  19.446   4.588 -0.0590  0.0132  0.0403
    1DPPC   NC313825  14.154   8.958   2.927 -0.2045  0.2106 -0.0931
    1DPPC   PO413826  13.801   8.956   3.109 -0.0409  0.0845 -0.0266
    1DPPC   GL113827  13.940   8.817   3.474  0.0125 -0.1997  0.0272
    1DPPC   GL213828  13.757   8.574   3.578 -0.0316  0.1372  0.1914
    1DPPC   C1A13829  14.157   8.926   3.790 -0.0417 -0.0603  0.1661
    1DPPC   C2A13830  14.138   8.957   4.211 -0.0857 -0.1928  0.2449
    1DPPC   C3A13831  14.179   9.088   4.537  0.1619 -0.0375  0.1184
    1DPPC   C4A13832  14.234   9.149   5.016  0.1358  0.0693  0.4393
    1DPPC   C1B13833  13.810   8.413   3.957  0.2780  0.1412 -0.2111
    1DPPC   C2B13834  13.958   8.451   4.369  0.3333 -0.1699  0.2691
    1DPPC   C3B13835  14.057   8.685   4.794 -0.0356 -0.1006 -0.0699
    1DPPC   C4B13836  14.112   8.695   5.181 -0.0031 -0.2229 -0.0534
    1DPPC   NC313837  12.647  11.879   2.765  0.1525  0.2608 -0.2368
    1DPPC   PO413838  13.148  11.782   2.787  0.1483  0.1963  0.3099
    1DPPC   GL113839  12.960  11.637   3.141 -0.2083  0.2453 -0.1931
    1DPPC   GL213840  12.633  11.604   3.173 -0.0688 -0.0243  0.1247
    1DPPC   C1A13841  13.090  11.645   3.624 -0.0245 -0.0199  0.1341
    1DPPC   C2A13842  13.125  11.676   4.133  0.1429 -0.0263  0.0565
    1DPPC   C3A13843  13.155  11.870   4.492 -0.0547 -0.3073 -0.2356
    1DPPC   C4A13844  13.192  11.854   5.017  0.0491  0.0643 -0.0798
    1DPPC   C1B13845  12.769  11.945   3.504 -0.4535 -0.3091 -0.0414
    1DPPC   C2B13846  12.777  12.006   3.925  0.0756 -0.3364  0.0074
    1DPPC   C3B13847  12.765  12.056   4.335  0.1330  0.3910  0.1079
    1DPPC   C4B13848  12.875  12.159   4.839  0.0961 -0.0821  0.1581
    1DPPC   NC313849  18.883  18.074   2.446 -0.2333  0.0133 -0.3154
    1DPPC   PO413850  18.949  17.866   2.862  0.0505  0.4337 -0.1150
    1DPPC   GL113851  19.070  18.027   3.262 -0.3496 -0.0215 -0.0367
    1DPPC   GL213852  19.312  17.742   3.351  0.1128  0.0005 -0.2797
    1DPPC   C1A13853  18.818  18.101   3.634  0.1366 -0.4107  0.1149
    1DPPC   C2A13854  18.838  18.083   4.091  0.2005 -0.3526 -0.0316
    1DPPC   C3A13855  18.832  18.027   4.510  0.0120  0.0191  0.2714
    1DPPC   C4A13856  18.609  18.007   4.939 -0.0176  0.1824  0.0553
    1DPPC   C1B13857  19.308  17.828   3.765 -0.1732 -0.3756  0.2698
    1DPPC   C2B13858  19.333  17.779   4.127 -0.4186 -0.0586  0.1020
    1DPPC   C3B13859  19.292  17.899   4.525  0.1813 -0.1042  0.1570
    1DPPC   C4B13860  19.084  17.968   4.937  0.1124  0.0247  0.0318
    1DPPC   NC313861  18.289  19.170   3.137 -0.1645  0.1694  0.1046
    1DPPC   PO413862  18.680  19.212   3.192  0.0660 -0.0683  0.0312
    1DPPC   GL113863  18.777  19.227   3.633  0.1452  0.1407  0.2623
    1DPPC   GL213864  18.672  19.470   3.716  0.0920  0.1305 -0.3868
    1DPPC   C1A13865  18.879  19.131   3.971 -0.0122  0.3265 -0.0690
    1DPPC   C2A13866  18.783  19.164   4.449 -0.0899  0.1341  0.0519
    1DPPC   C3A13867  18.731  19.313   4.856 -0.3529  0.0247  0.1162
    1DPPC   C4A13868  18.625  19.220   5.247 -0.0936  0.0070  0.2261
    1DPPC   C1B13869  18.690  19.687   4.173 -0.0395 -0.0270 -0.0515
    1DPPC   C2B13870  18.727  19.655   4.548  0.3852  0.0370  0.0749
    1DPPC   C3B13871  18.897  19.741   4.865  0.0854  0.0713 -0.1568
    1DPPC   C4B13872  19.072  19.446   5.186 -0.1691 -0.2369 -0.2664
    1DPPC   NC313873   9.105   9.547   2.699 -0.3196  0.0073  0.0057
    1DPPC   PO413874   9.170   9.339   3.112  0.0052  0.2033  0.0910
    1DPPC   GL113875   8.925   9.128   3.297  0.1072 -0.0541 -0.0104
    1DPPC   GL213876   8.763   9.424   3.413 -0.1708  0.4609 -0.0631
    1DPPC   C1A13877   8.868   9.066   3.702 -0.2070  0.1724 -0.2467
    1DPPC   C2A13878   8.890   8.968   4.114  0.0444 -0.2209  0.0926
    1DPPC   C3A13879   8.858   8.867   4.504 -0.0775  0.1623 -0.1944
    1DPPC   C4A13880   8.778   8.653   4.924  0.2430  0.0791 -0.0315
    1DPPC   C1B13881   8.443   9.334   3.717 -0.3336  0.0139  0.0237
    1DPPC   C2B13882   8.492   9.350   4.078  0.3378  0.0854 -0.1615
    1DPPC   C3B13883   8.456   9.224   4.451 -0.0017  0.2517  0.0455
    1DPPC   C4B13884   8.434   9.072   4.875 -0.1679  0.0963 -0.2603
    1DPPC   NC313885  21.692  19.508   3.056  0.2972  0.0715 -0.2299
    1DPPC   PO413886  21.803  19.121   2.952 -0.0497  0.0210  0.1476
    1DPPC   GL113887  21.670  18.992   3.304 -0.0750 -0.0623  0.0007
    1DPPC   GL213888  21.705  18.659   3.312 -0.0773 -0.0963  0.0178
    1DPPC   C1A13889  21.791  18.976   3.679  0.0164  0.0354 -0.1322
    1DPPC   C2A13890  21.905  19.043   4.175  0.2975  0.0292  0.2525
    1DPPC   C3A13891  21.809  19.195   4.622 -0.1440 -0.0634 -0.2612
    1DPPC   C4A13892  21.613  19.102   4.967  0.1196  0.2570  0.1066
    1DPPC   C1B13893  21.683  18.491   3.641  0.1143 -0.4643 -0.0726
    1DPPC   C2B13894  21.784  18.466   4.038  0.4797  0.0049 -0.1877
    1DPPC   C3B13895  21.803  18.547   4.302 -0.3066 -0.0389 -0.1792
    1DPPC   C4B13896  21.890  18.306   4.559  0.0557  0.5305  0.2361
    1DPPC   NC313897  12.014  11.062   2.716  0.0192  0.1447  0.3074
    1DPPC   PO413898  11.929  11.470   2.885  0.2970 -0.0846  0.0489
    1DPPC   GL113899  11.861  11.546   3.298  0.0931  0.4482 -0.2329
    1DPPC   GL213900  12.112  11.777   3.275 -0.2006 -0.1919 -0.1501
    1DPPC   C1A13901  11.802  11.558   3.698 -0.1238 -0.0345  0.5174
    1DPPC   C2A13902  11.828  11.689   4.108  0.1352 -0.0275  0.0112
    1DPPC   C3A13903  11.840  11.799   4.604 -0.0667 -0.3017 -0.2856
    1DPPC   C4A13904  11.664  11.924   4.945 -0.0817  0.0225  0.1162
    1DPPC   C1B13905  12.320  11.757   3.661  0.0588  0.2015  0.3292
    1DPPC   C2B13906  12.306  11.837   4.102 -0.0520 -0.3911  0.1769
    1DPPC   C3B13907  12.322  11.931   4.519  0.1124  0.2001 -0.0510
    1DPPC   C4B13908  12.413  12.141   4.932 -0.2686  0.0283  0.1134
    1DPPC   NC313909  20.207   6.398   2.799  0.1279 -0.3844  0.2669
    1DPPC   PO413910  20.081   6.043   3.027  0.2148 -0.0434  0.2387
    1DPPC   GL113911  20.114   5.878   3.470  0.0173 -0.0643 -0.1274
    1DPPC   GL213912  20.015   6.068   3.677  0.1235 -0.1839 -0.1167
    1DPPC   C1A13913  20.284   5.686   3.939  0.2347 -0.0896  0.0257
    1DPPC   C2A13914  20.264   5.602   4.273  0.1005 -0.0908  0.1416
    1DPPC   C3A13915  19.985   5.466   4.637 -0.0793  0.1347  0.1279
    1DPPC   C4A13916  19.776   5.353   5.055  0.2853  0.0124  0.0669
    1DPPC   C1B13917  20.176   6.111   4.090  0.0225  0.0398 -0.4525
    1DPPC   C2B13918  20.187   5.931   4.582 -0.1111 -0.0876  0.0421
    1DPPC   C3B13919  20.302   6.022   5.033 -0.4374  0.0179 -0.1420
    1DPPC   C4B13920  20.372   5.889   5.480 -0.1974  0.1091  0.1026
    1DPPC   NC313921   3.782  22.518   2.516 -0.1266 -0.2381 -0.2799
    1DPPC   PO413922   3.290  22.460   2.420  0.2387  0.1257 -0.0161
    1DPPC   GL113923   3.398  22.150   2.869  0.2463 -0.0800 -0.3675
    1DPPC   GL213924   3.648  22.073   2.734  0.1556  0.3097 -0.2013
    1DPPC   C1A13925   3.468  22.058   3.266 -0.0942 -0.2235  0.0503
    1DPPC   C2A13926   3.452  22.000   3.722 -0.0319 -0.0380  0.0802
    1DPPC   C3A13927   3.422  22.195   4.122 -0.1865  0.3812  0.2551
    1DPPC   C4A13928   3.521  22.548   4.322 -0.1709 -0.0638  0.2784
    1DPPC   C1B13929   3.880  21.784   2.993  0.3801  0.0907  0.1104
    1DPPC   C2B13930   3.837  21.663   3.368 -0.0280 -0.0208 -0.0652
    1DPPC   C3B13931   3.777  21.643   3.816  0.1660 -0.1045 -0.2001
    1DPPC   C4B13932   4.054  21.649   4.164  0.2406 -0.1900 -0.0743
    1DPPC   NC313933  24.665  19.434   3.288 -0.0269  0.0737 -0.1705
    1DPPC   PO413934  24.183  19.490   3.098 -0.0327 -0.0317  0.1285
    1DPPC   GL113935  24.000  19.336   3.473 -0.2907 -0.1282  0.5118
    1DPPC   GL213936  23.977  19.074   3.309 -0.0862  0.0826 -0.0574
    1DPPC   C1A13937  23.759  19.307   3.810  0.0959 -0.1702 -0.0538
    1DPPC   C2A13938  23.557  19.310   4.218  0.0074 -0.2569  0.3308
    1DPPC   C3A13939  23.348  19.189   4.596 -0.1632  0.0913 -0.0793
    1DPPC   C4A13940  23.241  19.080   4.891 -0.2902 -0.3329  0.0029
    1DPPC   C1B13941  23.986  18.881   3.803  0.0827  0.3088  0.1562
    1DPPC   C2B13942  24.057  18.688   4.285  0.0466 -0.2020  0.0014
    1DPPC   C3B13943  23.909  18.316   4.515  0.2458  0.3102  0.3491
    1DPPC   C4B13944  23.739  17.971   4.336 -0.2030  0.1433  0.2470
    1DPPC   NC313945   8.192  16.859   2.726 -0.0391 -0.4467 -0.2590
    1DPPC   PO413946   8.539  17.102   2.635  0.1140  0.0167 -0.1092
    1DPPC   GL113947   8.808  16.988   2.900 -0.2017  0.0734 -0.1061
    1DPPC   GL213948   8.850  16.679   2.891  0.0306  0.0114 -0.0673
    1DPPC   C1A13949   8.910  17.070   3.272  0.2908  0.0154 -0.2330
    1DPPC   C2A13950   8.832  16.948   3.714  0.0368  0.2266  0.0349
    1DPPC   C3A13951   8.929  16.830   4.105  0.0165  0.1282  0.1704
    1DPPC   C4A13952   8.861  16.777   4.569  0.0665 -0.1608  0.0478
    1DPPC   C1B13953   9.169  16.449   3.196  0.0022  0.1585  0.0946
    1DPPC   C2B13954   9.038  16.134   3.519  0.0623 -0.1269  0.0072
    1DPPC   C3B13955   9.334  16.041   3.853  0.0004 -0.0074 -0.1473
    1DPPC   C4B13956   9.542  16.238   4.165  0.5180 -0.3508 -0.3570
    1DPPC   NC313957  16.800  14.435   2.101  0.0938  0.5292 -0.0472
    1DPPC   PO413958  16.852  14.102   2.389  0.1944 -0.1578  0.1213
    1DPPC   GL113959  16.643  14.374   2.792 -0.0618  0.2499  0.0705
    1DPPC   GL213960  16.701  14.699   2.875  0.1013 -0.2488  0.0815
    1DPPC   C1A13961  16.494  14.262   3.078 -0.0953  0.0215 -0.1201
    1DPPC   C2A13962  16.509  14.318   3.519 -0.1411  0.1159  0.0826
    1DPPC   C3A13963  16.471  14.236   3.879 -0.1051  0.0846  0.0194
    1DPPC   C4A13964  16.542  14.200   4.290 -0.2266  0.0313 -0.2754
    1DPPC   C1B13965  16.675  14.819   3.323 -0.0777  0.2223  0.0881
    1DPPC   C2B13966  16.653  14.744   3.809 -0.2066 -0.1201 -0.1669
    1DPPC   C3B13967  16.617  14.730   4.242 -0.1170 -0.3130  0.1959
    1DPPC   C4B13968  16.401  14.702   4.696 -0.0248  0.2201  0.0723
    1DPPC   NC313969  15.429  18.853   2.379  0.2884 -0.0344 -0.3636
    1DPPC   PO413970  15.027  18.911   2.582 -0.0411 -0.2637 -0.0115
    1DPPC   GL113971  15.037  18.965   2.990  0.2352  0.1180 -0.2866
    1DPPC   GL213972  15.044  18.644   3.183  0.0430  0.2242 -0.1712
    1DPPC   C1A13973  15.411  18.930   3.324 -0.0454  0.0664 -0.0397
    1DPPC   C2A13974  15.401  18.922   3.798 -0.1257 -0.0421 -0.0362
    1DPPC   C3A13975  15.352  18.886   4.259 -0.0698 -0.2114  0.0787
    1DPPC   C4A13976  15.247  18.919   4.642  0.2052  0.2411  0.0882
    1DPPC   C1B13977  15.024  18.626   3.690  0.2794 -0.4152 -0.1305
    1DPPC   C2B13978  14.999  18.552   4.067  0.3903 -0.0139 -0.0485
    1DPPC   C3B13979  14.984  18.486   4.468  0.1689  0.0805 -0.2486
    1DPPC   C4B13980  14.868  18.148   4.782 -0.0531 -0.0447  0.1919
    1DPPC   NC313981  12.559  10.556   3.042 -0.0137  0.1671 -0.0585
    1DPPC   PO413982  12.241  10.800   3.106 -0.0510  0.0314 -0.0681
    1DPPC   GL113983  12.516  10.851   3.521 -0.0983 -0.0734 -0.0608
    1DPPC   GL213984  12.867  10.712   3.513  0.0413  0.2708  0.0921
    1DPPC   C1A13985  12.685  10.831   3.940 -0.2785 -0.0644  0.3055
    1DPPC   C2A13986  12.948  10.672   4.301 -0.1635 -0.0712  0.0263
    1DPPC   C3A13987  13.053  10.795   4.670  0.0709 -0.0546  0.0516
    1DPPC   C4A13988  13.166  10.580   5.095 -0.0819  0.0356 -0.0517
    1DPPC   C1B13989  13.205  10.742   3.725 -0.3220 -0.2978  0.2642
    1DPPC   C2B13990  13.380  10.816   4.116 -0.0536  0.1212 -0.0191
    1DPPC   C3B13991  13.507  10.883   4.516  0.0727 -0.1690 -0.1319
    1DPPC   C4B13992  13.545  10.842   4.953 -0.1242 -0.0657 -0.0941
    1DPPC   NC313993  13.821  18.843   2.386  0.0770  0.0096  0.2061
    1DPPC   PO413994  13.444  18.734   2.677  0.4095 -0.1293  0.0686
    1DPPC   GL113995  13.341  18.505   2.955 -0.2368  0.2786  0.0286
    1DPPC   GL213996  13.127  18.287   2.953 -0.0060 -0.0896  0.1742
    1DPPC   C1A13997  13.400  18.606   3.355 -0.1174 -0.0180 -0.1862
    1DPPC   C2A13998  13.232  18.599   3.762 -0.2383 -0.1088 -0.1041
    1DPPC   C3A13999  13.073  18.674   4.150 -0.1970 -0.0264 -0.3782
    1DPPC   C4A14000  12.988  18.440   4.523  0.2585  0.0706  0.0960
    1DPPC   C1B14001  13.160  18.101   3.246 -0.0802  0.0421  0.1975
    1DPPC   C2B14002  13.234  18.080   3.705 -0.0641  0.1168 -0.2538
    1DPPC   C3B14003  12.985  18.028   4.154  0.1871 -0.1394 -0.0955
    1DPPC   C4B14004  12.740  17.978   4.551 -0.0771 -0.0737 -0.2017
    1DPPC   NC314005  21.976  15.030   2.286 -0.5172  0.1764  0.0170
    1DPPC   PO414006  21.815  14.713   2.466  0.2219 -0.1163 -0.3036
    1DPPC   GL114007  22.014  14.992   2.860  0.1294 -0.2973 -0.1822
    1DPPC   GL214008  22.314  15.245   2.678 -0.1584  0.0326 -0.1738
    1DPPC   C1A14009  22.191  14.977   3.381 -0.1760 -0.0610 -0.0823
    1DPPC   C2A14010  22.007  14.963   3.709 -0.2028 -0.0596  0.2817
    1DPPC   C3A14011  21.940  15.226   4.074 -0.0764 -0.1483 -0.2920
    1DPPC   C4A14012  22.132  15.481   4.363 -0.0247 -0.1236  0.0225
    1DPPC   C1B14013  22.328  15.367   3.050  0.3985  0.2360 -0.0565
    1DPPC   C2B14014  22.468  15.360   3.524 -0.0741 -0.0517  0.2501
    1DPPC   C3B14015  22.533  15.245   3.938  0.0416 -0.2140 -0.0006
    1DPPC   C4B14016  22.905  14.977   4.217  0.3236  0.1562 -0.0496
    1DPPC   NC314017  15.053  19.451   2.805 -0.0302 -0.1651 -0.3068
    1DPPC   PO414018  15.011  19.781   2.970 -0.1756 -0.1183  0.0633
    1DPPC   GL114019  14.761  19.590   3.341  0.0642  0.1367 -0.3011
    1DPPC   GL214020  14.704  19.308   3.218  0.4328 -0.4720  0.1293
    1DPPC   C1A14021  14.717  19.479   3.798  0.3187  0.0646 -0.0943
    1DPPC   C2A14022  14.763  19.517   4.152  0.0927 -0.0913  0.1645
    1DPPC   C3A14023  14.906  19.429   4.458  0.0726  0.0204 -0.1781
    1DPPC   C4A14024  14.885  19.160   4.796  0.2008 -0.0514  0.3168
    1DPPC   C1B14025  14.962  19.128   3.557 -0.3010  0.1192  0.0961
    1DPPC   C2B14026  14.961  19.075   3.973 -0.0025 -0.1466  0.2589
    1DPPC   C3B14027  14.759  18.957   4.345  0.4117  0.1261 -0.2298
    1DPPC   C4B14028  14.539  18.751   4.645  0.1071  0.0702 -0.1478
    1DPPC   NC314029  28.195   8.442   2.621 -0.2580 -0.1843 -0.0292
    1DPPC   PO414030  28.329   8.812   2.834 -0.0462  0.4289 -0.1981
    1DPPC   GL114031  28.127   8.936   3.210  0.1248  0.2042 -0.0096
    1DPPC   GL214032  27.896   8.661   3.253  0.1702  0.2752  0.4596
    1DPPC   C1A14033  27.906   8.909   3.645  0.1671 -0.0476 -0.1455
    1DPPC   C2A14034  28.007   8.648   3.992 -0.1698 -0.0656  0.1199
    1DPPC   C3A14035  27.659   8.445   4.282 -0.2636  0.0647 -0.1476
    1DPPC   C4A14036  27.398   8.268   4.731 -0.1478 -0.1935 -0.2965
    1DPPC   C1B14037  27.846   8.349   3.534  0.1811 -0.1502 -0.0897
    1DPPC   C2B14038  27.637   8.088   3.891  0.0245  0.3342  0.0455
    1DPPC   C3B14039  27.278   8.083   4.168 -0.1873  0.2928  0.0342
    1DPPC   C4B14040  26.930   7.829   4.137 -0.1855 -0.0541 -0.3187
    1DPPC   NC314041  14.212   9.739   2.814 -0.2225  0.0070  0.0516
    1DPPC   PO414042  14.006   9.449   3.069  0.2874 -0.2202 -0.1398
    1DPPC   GL114043  13.972   9.544   3.370  0.0113 -0.4002 -0.3831
    1DPPC   GL214044  13.834   9.306   3.573  0.2697 -0.0266 -0.0339
    1DPPC   C1A14045  13.919   9.861   3.725 -0.0376  0.0014  0.1251
    1DPPC   C2A14046  13.863   9.830   4.154 -0.1860  0.0031  0.2119
    1DPPC   C3A14047  13.840   9.906   4.615 -0.0746 -0.1037 -0.0564
    1DPPC   C4A14048  13.927  10.125   5.020  0.2126 -0.1735 -0.2073
    1DPPC   C1B14049  13.739   9.408   4.037  0.2182 -0.0612  0.1164
    1DPPC   C2B14050  13.672   9.468   4.472 -0.1825 -0.0320 -0.1036
    1DPPC   C3B14051  13.706   9.425   4.869 -0.1425 -0.0253 -0.0885
    1DPPC   C4B14052  14.068   9.669   5.131  0.3356 -0.1487  0.0762
    1DPPC   NC314053  13.090  17.416   2.156 -0.2774 -0.2118 -0.5552
    1DPPC   PO414054  13.160  17.705   2.472  0.0911  0.1240 -0.1745
    1DPPC   GL114055  13.305  17.873   2.819 -0.0597  0.0794  0.0871
    1DPPC   GL214056  13.649  18.045   2.794  0.0441 -0.1033  0.2587
    1DPPC   C1A14057  13.485  17.694   3.159 -0.0292 -0.2295 -0.0225
    1DPPC   C2A14058  13.475  17.643   3.620 -0.0818 -0.1223 -0.0851
    1DPPC   C3A14059  13.322  17.665   4.126 -0.1195 -0.0640 -0.0579
    1DPPC   C4A14060  13.217  17.612   4.593 -0.0557 -0.0273 -0.4078
    1DPPC   C1B14061  13.697  18.153   3.175 -0.2130 -0.1385 -0.0517
    1DPPC   C2B14062  13.678  18.248   3.618 -0.4491 -0.0362  0.2250
    1DPPC   C3B14063  13.588  18.236   4.002 -0.0674  0.3097 -0.0831
    1DPPC   C4B14064  13.406  18.220   4.250  0.2820  0.1053 -0.0207
    1DPPC   NC314065   7.467  20.217   2.701 -0.1382  0.2598 -0.3350
    1DPPC   PO414066   7.803  20.003   2.948 -0.0831 -0.3521  0.0735
    1DPPC   GL114067   7.998  19.965   3.277 -0.0726 -0.2663 -0.2448
    1DPPC   GL214068   8.280  19.939   3.411 -0.2046 -0.1519 -0.0571
    1DPPC   C1A14069   7.969  19.969   3.770  0.0029 -0.0411  0.0513
    1DPPC   C2A14070   8.298  20.188   4.149  0.1529 -0.1755  0.2078
    1DPPC   C3A14071   8.362  20.420   4.478  0.2288  0.1466  0.1273
    1DPPC   C4A14072   8.525  20.465   5.004  0.1877 -0.3022 -0.5060
    1DPPC   C1B14073   8.567  19.962   3.689  0.0976 -0.3625 -0.0046
    1DPPC   C2B14074   8.852  19.871   3.976  0.3154  0.0220  0.1915
    1DPPC   C3B14075   9.182  19.857   4.119 -0.0154  0.0134 -0.1240
    1DPPC   C4B14076   9.608  19.634   4.228 -0.0807  0.0483  0.0662
    1DPPC   NC314077  18.745  13.175   2.464 -0.0312  0.1575  0.0844
    1DPPC   PO414078  19.171  13.488   2.357 -0.3523  0.1117  0.1066
    1DPPC   GL114079  19.381  13.422   2.884  0.1390  0.1395 -0.2130
    1DPPC   GL214080  19.166  13.131   2.939  0.0012 -0.0354  0.1704
    1DPPC   C1A14081  19.231  13.434   3.378  0.0793  0.0145  0.0230
    1DPPC   C2A14082  19.223  13.377   3.814 -0.2965 -0.1310 -0.1351
    1DPPC   C3A14083  19.205  13.391   4.222  0.0891 -0.0046 -0.2033
    1DPPC   C4A14084  19.117  13.194   4.533  0.1127 -0.1559  0.0372
    1DPPC   C1B14085  19.088  12.941   3.336 -0.1256  0.0849  0.3149
    1DPPC   C2B14086  19.095  12.717   3.776 -0.0049 -0.2682  0.2862
    1DPPC   C3B14087  18.986  12.599   4.239  0.1677 -0.2673 -0.0426
    1DPPC   C4B14088  18.962  12.443   4.646 -0.0531 -0.0213  0.3191
    1DPPC   NC314089  10.740   7.506   2.965  0.2076 -0.0167  0.2296
    1DPPC   PO414090  10.313   7.404   3.140 -0.2437 -0.0512  0.1680
    1DPPC   GL114091  10.414   7.473   3.598 -0.2061 -0.2370  0.3347
    1DPPC   GL214092  10.192   7.648   3.685  0.0366 -0.2059  0.6373
    1DPPC   C1A14093  10.745   7.644   3.882 -0.3218 -0.0389  0.1202
    1DPPC   C2A14094  10.711   7.708   4.331  0.1141 -0.2171  0.1464
    1DPPC   C3A14095  10.749   7.784   4.741  0.2042  0.2127  0.0889
    1DPPC   C4A14096  10.764   7.593   5.103 -0.0774  0.0315  0.1417
    1DPPC   C1B14097  10.301   7.704   4.108  0.2189  0.1714 -0.0092
    1DPPC   C2B14098  10.097   7.554   4.464  0.2297 -0.1572  0.3800
    1DPPC   C3B14099  10.303   7.613   4.798  0.2231  0.1605 -0.1637
    1DPPC   C4B14100  10.290   7.973   5.109  0.2293  0.1613  0.0024
    1DPPC   NC314101  19.343  13.120   2.005 -0.1567  0.1665  0.2748
    1DPPC   PO414102  19.799  13.058   2.296 -0.0326  0.1090 -0.0252
    1DPPC   GL114103  19.689  12.959   2.736 -0.2409  0.0240 -0.1042
    1DPPC   GL214104  19.987  12.854   2.932 -0.2164 -0.0527 -0.1227
    1DPPC   C1A14105  19.575  13.067   3.159 -0.0087 -0.2611 -0.0376
    1DPPC   C2A14106  19.521  13.061   3.668 -0.1326  0.0550  0.0141
    1DPPC   C3A14107  19.390  12.958   4.065  0.1630  0.0498  0.1223
    1DPPC   C4A14108  19.495  12.623   4.364 -0.0173 -0.3412 -0.0121
    1DPPC   C1B14109  20.053  13.010   3.266  0.1817  0.0973 -0.1765
    1DPPC   C2B14110  20.037  13.017   3.714  0.3370 -0.0824  0.1384
    1DPPC   C3B14111  20.211  13.261   4.031 -0.1452  0.0394  0.2422
    1DPPC   C4B14112  20.101  13.350   4.383 -0.3407 -0.0419 -0.0043
    1DPPC   NC314113  17.881  10.963   2.656 -0.0362  0.2116 -0.0474
    1DPPC   PO414114  18.121  10.494   2.693  0.1507 -0.0505  0.0798
    1DPPC   GL114115  18.151  10.343   3.222  0.2288  0.1778 -0.0834
    1DPPC   GL214116  18.479  10.541   3.391  0.0428 -0.0686 -0.0414
    1DPPC   C1A14117  17.997  10.235   3.619  0.0187  0.0006 -0.1298
    1DPPC   C2A14118  17.868  10.524   3.957 -0.0943  0.2057 -0.0500
    1DPPC   C3A14119  17.796  10.584   4.444 -0.0950 -0.1302 -0.1630
    1DPPC   C4A14120  17.479  10.646   4.746  0.0575  0.0397 -0.0674
    1DPPC   C1B14121  18.545  10.639   3.757  0.0106  0.1959  0.0504
    1DPPC   C2B14122  18.399  10.648   4.182 -0.1016  0.1755 -0.1660
    1DPPC   C3B14123  18.546  10.590   4.569 -0.1822  0.2351  0.0592
    1DPPC   C4B14124  18.448  10.572   5.102 -0.0009  0.0109  0.0908
    1DPPC   NC314125  19.021  10.768   2.694  0.0887 -0.0446 -0.2848
    1DPPC   PO414126  19.356  10.523   2.992 -0.3201  0.0121  0.3384
    1DPPC   GL114127  19.387  10.392   3.377 -0.0745  0.1144 -0.2311
    1DPPC   GL214128  19.600  10.617   3.510 -0.0948  0.0597 -0.0499
    1DPPC   C1A14129  18.936  10.391   3.631 -0.2424  0.0563  0.0038
    1DPPC   C2A14130  18.870  10.353   4.066  0.2536  0.0989  0.1338
    1DPPC   C3A14131  18.720  10.131   4.400 -0.2981  0.0473 -0.2954
    1DPPC   C4A14132  18.748   9.715   4.573  0.2212 -0.1205  0.4240
    1DPPC   C1B14133  19.732  10.746   3.887 -0.0026  0.0484  0.0044
    1DPPC   C2B14134  19.950  10.951   4.251  0.1998 -0.3053  0.0627
    1DPPC   C3B14135  19.957  11.334   4.529  0.3181  0.0204 -0.2497
    1DPPC   C4B14136  19.550  11.277   4.840 -0.2740 -0.0018 -0.0344
    1DPPC   NC314137  17.930  13.289   2.774  0.0550 -0.0093  0.0961
    1DPPC   PO414138  18.295  13.352   2.679 -0.0205 -0.2078 -0.0544
    1DPPC   GL114139  18.256  13.109   3.062  0.4506 -0.4497 -0.3765
    1DPPC   GL214140  17.989  13.089   3.200  0.0382  0.1363  0.0499
    1DPPC   C1A14141  18.364  12.708   3.171  0.0691 -0.0002  0.2805
    1DPPC   C2A14142  18.489  12.622   3.598  0.2453 -0.1854  0.0460
    1DPPC   C3A14143  18.465  12.584   4.042 -0.0778  0.3022  0.2774
    1DPPC   C4A14144  18.516  12.472   4.458 -0.2221  0.0543 -0.0057
    1DPPC   C1B14145  18.146  13.016   3.580 -0.0882  0.0714 -0.1721
    1DPPC   C2B14146  18.203  13.053   4.045  0.1731 -0.0899 -0.0658
    1DPPC   C3B14147  18.078  12.855   4.400 -0.2186 -0.2294 -0.0003
    1DPPC   C4B14148  17.792  12.829   4.724  0.2443 -0.1240 -0.2147
    1DPPC   NC314149  14.023  12.098   2.768 -0.1421  0.1887  0.2094
    1DPPC   PO414150  13.726  12.337   2.628 -0.1497  0.0153  0.3203
    1DPPC   GL114151  13.494  12.221   2.972 -0.0852 -0.0767  0.3133
    1DPPC   GL214152  13.749  12.140   3.136 -0.0630 -0.0951 -0.0629
    1DPPC   C1A14153  13.305  12.089   3.364  0.3046  0.0744  0.1014
    1DPPC   C2A14154  13.224  12.234   3.896 -0.0974  0.0017 -0.0695
    1DPPC   C3A14155  13.355  12.242   4.249 -0.0990 -0.1527  0.1671
    1DPPC   C4A14156  13.376  12.258   4.733 -0.0125 -0.1054  0.0812
    1DPPC   C1B14157  13.754  12.314   3.557  0.3250  0.1098  0.0176
    1DPPC   C2B14158  13.809  12.383   3.920 -0.1394 -0.0857  0.0918
    1DPPC   C3B14159  13.849  12.279   4.412 -0.0952  0.1330 -0.1438
    1DPPC   C4B14160  13.937  12.384   4.819  0.0998 -0.2288 -0.0068
    1DPPC   NC314161   4.153  21.884   2.029 -0.1994 -0.0115  0.2784
    1DPPC   PO414162   4.176  22.226   2.246 -0.0733  0.3471  0.0153
    1DPPC   GL114163   4.186  22.045   2.673 -0.1971  0.3758 -0.1809
    1DPPC   GL214164   4.158  22.277   2.815  0.2149 -0.3715  0.1319
    1DPPC   C1A14165   4.345  21.822   2.961 -0.0235  0.3636  0.1557
    1DPPC   C2A14166   4.372  21.767   3.350 -0.1556  0.0963 -0.2991
    1DPPC   C3A14167   4.462  21.524   3.729 -0.5288 -0.0609 -0.1699
    1DPPC   C4A14168   4.395  21.305   4.127  0.0385 -0.0002  0.0646
    1DPPC   C1B14169   3.890  22.234   3.224 -0.3388 -0.3043 -0.0375
    1DPPC   C2B14170   3.994  22.054   3.645 -0.2520 -0.2384  0.3369
    1DPPC   C3B14171   3.925  22.136   4.106 -0.1931 -0.2978 -0.0236
    1DPPC   C4B14172   4.018  21.967   4.563 -0.0527  0.2485 -0.0482
    1DPPC   NC314173  13.119   8.271   3.140  0.0956  0.1257  0.1460
    1DPPC   PO414174  13.264   8.474   3.559 -0.0668 -0.0692 -0.0146
    1DPPC   GL114175  12.867   8.413   3.948  0.1315  0.3503 -0.1833
    1DPPC   GL214176  13.138   8.192   4.083 -0.0877  0.0121 -0.2338
    1DPPC   C1A14177  12.644   8.340   4.305 -0.0298  0.0732 -0.1699
    1DPPC   C2A14178  12.578   8.231   4.604 -0.0071 -0.0572  0.2115
    1DPPC   C3A14179  12.737   8.201   4.975  0.1137  0.0911 -0.3353
    1DPPC   C4A14180  12.891   7.936   5.331  0.1992  0.1017 -0.0324
    1DPPC   C1B14181  13.087   8.215   4.555 -0.3568 -0.0172 -0.0029
    1DPPC   C2B14182  13.170   8.373   4.996 -0.0831 -0.4121 -0.0758
    1DPPC   C3B14183  13.025   8.396   5.396 -0.5268 -0.1662 -0.1304
    1DPPC   C4B14184  12.830   8.632   5.652  0.2382 -0.0235  0.1015
    1DPPC   NC314185  26.659  22.352   2.800  0.1409  0.0432 -0.1481
    1DPPC   PO414186  26.750  22.598   3.211  0.1560 -0.1333  0.1937
    1DPPC   GL114187  26.980  22.518   3.494 -0.4327  0.2703 -0.3227
    1DPPC   GL214188  27.179  22.606   3.694 -0.1648 -0.2251 -0.0954
    1DPPC   C1A14189  27.262  22.086   3.490 -0.1748  0.1590 -0.0805
    1DPPC   C2A14190  27.496  21.919   3.779 -0.2477  0.0244 -0.0868
    1DPPC   C3A14191  27.361  21.845   4.173  0.2662  0.4827 -0.2460
    1DPPC   C4A14192  27.324  22.027   4.539  0.0239 -0.3106  0.1371
    1DPPC   C1B14193  27.212  22.314   4.022 -0.1768  0.1039 -0.2595
    1DPPC   C2B14194  26.913  22.126   4.164 -0.0733 -0.0631 -0.0704
    1DPPC   C3B14195  26.655  21.920   4.538 -0.1283  0.2353  0.3179
    1DPPC   C4B14196  26.817  21.791   4.816  0.1967  0.2369  0.3506
    1DPPC   NC314197   2.986   3.289   2.668 -0.1423 -0.0400 -0.1672
    1DPPC   PO414198   2.925   2.859   2.572  0.0386  0.2406 -0.2690
    1DPPC   GL114199   2.811   2.809   3.002  0.0173  0.0954 -0.0723
    1DPPC   GL214200   3.001   2.620   3.139  0.5809  0.0245 -0.1521
    1DPPC   C1A14201   2.716   3.010   3.356  0.0447 -0.2620  0.0866
    1DPPC   C2A14202   2.911   3.060   3.733  0.1150 -0.3058  0.3290
    1DPPC   C3A14203   3.038   3.423   4.050  0.0265  0.0751 -0.2008
    1DPPC   C4A14204   3.113   3.841   4.163  0.0326  0.0436 -0.0462
    1DPPC   C1B14205   2.870   2.276   3.467 -0.2884 -0.1440 -0.1139
    1DPPC   C2B14206   2.929   2.115   3.894 -0.2472  0.1832  0.0906
    1DPPC   C3B14207   3.244   2.139   4.246 -0.3585  0.0494  0.5098
    1DPPC   C4B14208   3.496   2.058   4.641 -0.3479  0.2933 -0.3549
    1DPPC   NC314209  14.576   8.218   3.419 -0.0845 -0.1169 -0.0496
    1DPPC   PO414210  14.353   8.605   3.292 -0.1940  0.0348  0.0750
    1DPPC   GL114211  14.642   8.771   3.561 -0.0462 -0.1128  0.2095
    1DPPC   GL214212  14.853   8.595   3.641 -0.1191 -0.2999  0.0318
    1DPPC   C1A14213  14.640   9.012   3.949 -0.0367  0.1378 -0.1116
    1DPPC   C2A14214  14.634   9.122   4.342  0.4087  0.5741  0.2698
    1DPPC   C3A14215  14.611   9.270   4.673 -0.1033 -0.2488 -0.1102
    1DPPC   C4A14216  14.671   9.395   5.041 -0.1896  0.0107 -0.2127
    1DPPC   C1B14217  15.057   8.776   3.960 -0.3404 -0.3285  0.0480
    1DPPC   C2B14218  15.083   8.953   4.412 -0.1528  0.1528 -0.2413
    1DPPC   C3B14219  15.415   9.008   4.801  0.0126 -0.2969 -0.0289
    1DPPC   C4B14220  15.683   9.197   5.067 -0.0882  0.2960 -0.0288
    1DPPC   NC314221   6.493  14.956   2.239  0.3153 -0.2074  0.0455
    1DPPC   PO414222   6.151  14.911   2.481  0.1539  0.1908 -0.3728
    1DPPC   GL114223   5.862  14.952   2.840 -0.3184  0.3546 -0.1128
    1DPPC   GL214224   6.081  15.177   2.938  0.0509  0.0854  0.1555
    1DPPC   C1A14225   5.828  14.839   3.251  0.2727  0.0089 -0.1211
    1DPPC   C2A14226   5.563  14.909   3.503 -0.2189 -0.0265 -0.1049
    1DPPC   C3A14227   5.659  15.420   3.704  0.3184  0.0832 -0.2238
    1DPPC   C4A14228   5.465  15.627   3.857  0.1542  0.3133 -0.1454
    1DPPC   C1B14229   5.988  15.322   3.351  0.0647  0.1918 -0.1758
    1DPPC   C2B14230   6.094  15.244   3.863 -0.1924 -0.0580 -0.0932
    1DPPC   C3B14231   5.709  14.924   4.064 -0.0343 -0.1412  0.1197
    1DPPC   C4B14232   5.407  14.908   4.512 -0.1168  0.1775  0.2301
    1DPPC   NC314233  20.153  13.289   2.557  0.1215 -0.3104 -0.0155
    1DPPC   PO414234  20.598  13.124   2.466  0.1594  0.2756 -0.0529
    1DPPC   GL114235  20.461  12.987   2.832 -0.0743 -0.1343  0.1940
    1DPPC   GL214236  20.405  13.232   3.018 -0.2428  0.3147 -0.1821
    1DPPC   C1A14237  20.546  12.879   3.325 -0.0606  0.0048  0.0459
    1DPPC   C2A14238  20.537  13.020   3.762  0.1084  0.0841 -0.0285
    1DPPC   C3A14239  20.677  13.345   4.107 -0.0197 -0.2238  0.3187
    1DPPC   C4A14240  20.545  13.662   4.437  0.1953 -0.0293 -0.0144
    1DPPC   C1B14241  20.385  13.424   3.389 -0.0733  0.0553  0.0183
    1DPPC   C2B14242  20.383  13.623   3.733  0.0542  0.1797 -0.0599
    1DPPC   C3B14243  20.549  13.960   4.052 -0.1421  0.1514 -0.0072
    1DPPC   C4B14244  21.002  14.116   4.202 -0.1012 -0.3027 -0.1018
    1DPPC   NC314245  11.769  10.006   3.128 -0.0854 -0.0386  0.2953
    1DPPC   PO414246  11.949  10.137   2.871  0.0183 -0.0745 -0.1033
    1DPPC   GL114247  12.151  10.256   3.339  0.1030  0.0151  0.1947
    1DPPC   GL214248  12.193   9.959   3.515  0.0501 -0.0474 -0.0092
    1DPPC   C1A14249  12.125  10.503   3.657  0.0990  0.0464 -0.1104
    1DPPC   C2A14250  12.218  10.680   4.025  0.1625  0.0707  0.0377
    1DPPC   C3A14251  12.246  10.779   4.449 -0.0858 -0.0155 -0.1060
    1DPPC   C4A14252  12.085  10.971   4.736  0.0141  0.2581 -0.3020
    1DPPC   C1B14253  12.028  10.085   3.865 -0.1299  0.1024 -0.0758
    1DPPC   C2B14254  12.056  10.075   4.313  0.2241  0.2179 -0.2884
    1DPPC   C3B14255  12.007  10.076   4.693 -0.0600 -0.1482  0.1692
    1DPPC   C4B14256  11.966  10.049   5.141 -0.4280 -0.2911 -0.0174
    1DPPC   NC314257  10.706  18.275   1.842 -0.2029 -0.4539  0.4427
    1DPPC   PO414258  11.023  18.471   2.069 -0.4026  0.3017 -0.1214
    1DPPC   GL114259  10.917  18.371   2.430 -0.0433  0.1089 -0.0343
    1DPPC   GL214260  11.176  18.458   2.633 -0.0090  0.1222 -0.0212
    1DPPC   C1A14261  10.681  18.122   2.702  0.1548  0.1946 -0.1823
    1DPPC   C2A14262  10.616  18.352   3.167 -0.2095  0.2766  0.1783
    1DPPC   C3A14263  10.439  18.500   3.549 -0.1251 -0.0421  0.3587
    1DPPC   C4A14264  10.053  18.503   3.958 -0.2764  0.0899  0.0806
    1DPPC   C1B14265  11.109  18.393   3.108  0.1887  0.0942  0.0648
    1DPPC   C2B14266  11.005  18.377   3.570 -0.0268  0.2648 -0.1290
    1DPPC   C3B14267  10.743  18.339   3.976  0.0184  0.0273 -0.0895
    1DPPC   C4B14268  10.479  18.535   4.199 -0.2406 -0.1824  0.1264
    1DPPC   NC314269  22.286  18.603   2.587 -0.0784 -0.1262  0.2996
    1DPPC   PO414270  22.491  18.114   2.660  0.1233 -0.1716  0.0299
    1DPPC   GL114271  22.508  17.958   3.036  0.0539  0.0033 -0.0092
    1DPPC   GL214272  22.352  17.721   3.105  0.1584  0.0709 -0.2594
    1DPPC   C1A14273  22.641  18.073   3.425 -0.0318 -0.0898 -0.2411
    1DPPC   C2A14274  22.715  18.086   3.801 -0.1472 -0.3347 -0.1512
    1DPPC   C3A14275  22.717  17.855   4.236 -0.0882  0.1595 -0.1946
    1DPPC   C4A14276  22.845  17.434   4.571 -0.1505 -0.1036 -0.0821
    1DPPC   C1B14277  22.420  17.635   3.508 -0.2539 -0.0673 -0.0205
    1DPPC   C2B14278  22.487  17.575   3.942  0.2379  0.1254  0.1282
    1DPPC   C3B14279  22.660  17.209   4.149 -0.0133 -0.0203 -0.2420
    1DPPC   C4B14280  22.569  16.788   4.452 -0.0143 -0.2766  0.0068
    1DPPC   NC314281  16.462  16.484   1.809 -0.0854 -0.2295  0.1329
    1DPPC   PO414282  16.487  16.490   2.353  0.1508 -0.0130 -0.0726
    1DPPC   GL114283  16.450  16.419   2.779  0.1622 -0.1649  0.1203
    1DPPC   GL214284  16.359  16.678   3.081 -0.0590 -0.1392  0.0821
    1DPPC   C1A14285  16.450  16.098   3.199  0.0603 -0.0723 -0.2856
    1DPPC   C2A14286  16.266  16.214   3.608 -0.0154  0.1413 -0.2038
    1DPPC   C3A14287  16.282  16.185   4.051  0.2035  0.0368 -0.1270
    1DPPC   C4A14288  16.292  16.141   4.478 -0.0331 -0.1975  0.3248
    1DPPC   C1B14289  16.167  16.765   3.465 -0.0203  0.2236  0.0337
    1DPPC   C2B14290  16.241  16.681   3.818  0.0917  0.0763  0.1028
    1DPPC   C3B14291  16.287  16.677   4.254  0.0694 -0.1511  0.1896
    1DPPC   C4B14292  16.330  16.632   4.744 -0.1108 -0.1442 -0.1162
    1DPPC   NC314293  19.656  16.810   2.432 -0.2188  0.1961 -0.2382
    1DPPC   PO414294  19.478  16.355   2.452  0.0744  0.1860  0.0408
    1DPPC   GL114295  19.368  16.172   2.871 -0.1370  0.0247  0.1917
    1DPPC   GL214296  19.548  16.233   3.091 -0.0214 -0.3284  0.2871
    1DPPC   C1A14297  19.118  15.902   3.161  0.0079 -0.0139 -0.0371
    1DPPC   C2A14298  19.159  15.795   3.570  0.0789  0.1686 -0.0752
    1DPPC   C3A14299  19.157  15.746   4.023 -0.2537  0.1058  0.2204
    1DPPC   C4A14300  19.026  15.607   4.440  0.3092 -0.0654  0.2030
    1DPPC   C1B14301  19.448  16.187   3.534  0.0314  0.0582 -0.2982
    1DPPC   C2B14302  19.490  16.117   3.938  0.3318  0.2500  0.0740
    1DPPC   C3B14303  19.508  16.059   4.345  0.0859  0.0489 -0.0694
    1DPPC   C4B14304  19.474  16.062   4.803  0.1852  0.0771  0.0392
    1DPPC   NC314305  21.985  16.947   2.527 -0.2584  0.0818  0.1834
    1DPPC   PO414306  21.673  17.228   2.779  0.0013  0.0004  0.0722
    1DPPC   GL114307  21.600  17.176   3.169 -0.1821  0.0932  0.1767
    1DPPC   GL214308  21.308  17.252   3.167  0.2706  0.0820 -0.1995
    1DPPC   C1A14309  21.667  17.041   3.629 -0.1965 -0.3222  0.1009
    1DPPC   C2A14310  21.659  17.009   4.080  0.3221 -0.2081 -0.4821
    1DPPC   C3A14311  21.681  16.938   4.537 -0.2675 -0.0010  0.2773
    1DPPC   C4A14312  21.492  16.995   4.913  0.1478  0.0373 -0.1829
    1DPPC   C1B14313  21.203  17.230   3.557 -0.1197  0.1605 -0.1104
    1DPPC   C2B14314  21.124  17.122   3.989 -0.1130 -0.1215  0.2432
    1DPPC   C3B14315  21.114  17.148   4.499 -0.0236  0.3505  0.0397
    1DPPC   C4B14316  21.061  17.254   4.932  0.3106 -0.1757  0.2629
    1DPPC   NC314317  22.615  12.623   2.474 -0.1288  0.3979  0.1001
    1DPPC   PO414318  22.366  12.247   2.339  0.0094  0.0219  0.1743
    1DPPC   GL114319  22.337  12.280   2.729  0.0779  0.1019  0.1082
    1DPPC   GL214320  22.074  12.292   2.827  0.1002  0.4178 -0.1218
    1DPPC   C1A14321  22.486  12.172   3.080 -0.0725 -0.0336 -0.2311
    1DPPC   C2A14322  22.580  12.051   3.582  0.0424  0.3417  0.3176
    1DPPC   C3A14323  22.704  12.087   3.953  0.1097  0.1907 -0.2584
    1DPPC   C4A14324  23.002  12.020   4.288  0.3111 -0.1796  0.3693
    1DPPC   C1B14325  22.076  12.208   3.321 -0.0474 -0.1058 -0.3076
    1DPPC   C2B14326  22.138  12.261   3.727  0.1318  0.2633  0.2859
    1DPPC   C3B14327  22.303  12.325   4.127 -0.2621 -0.1288 -0.2677
    1DPPC   C4B14328  22.330  12.590   4.429 -0.2514  0.0125  0.1844
    1DPPC   NC314329  10.959  18.911   2.444 -0.3640 -0.0426  0.0424
    1DPPC   PO414330  11.229  19.121   2.604 -0.0685 -0.0246  0.5600
    1DPPC   GL114331  11.019  18.926   2.958 -0.0240  0.1372  0.2383
    1DPPC   GL214332  10.765  18.714   2.863  0.0463  0.0237  0.1791
    1DPPC   C1A14333  10.862  18.818   3.393  0.0497 -0.0043  0.0376
    1DPPC   C2A14334  10.812  18.881   3.820 -0.2882  0.1871  0.1902
    1DPPC   C3A14335  10.880  18.967   4.288 -0.0775  0.3958 -0.0303
    1DPPC   C4A14336  10.519  19.154   4.500 -0.0170  0.1450 -0.0578
    1DPPC   C1B14337  10.462  18.891   3.158  0.0699 -0.3973  0.3133
    1DPPC   C2B14338  10.059  18.807   3.428  0.1796 -0.0790 -0.1740
    1DPPC   C3B14339   9.902  18.957   3.771 -0.2705 -0.3003  0.4505
    1DPPC   C4B14340   9.832  19.004   4.226  0.0204  0.2412 -0.1961
    1DPPC   NC314341  12.102  12.493   2.798 -0.2689  0.0158  0.3016
    1DPPC   PO414342  12.519  12.360   2.791  0.2147  0.0526  0.0793
    1DPPC   GL114343  12.490  12.319   3.249 -0.0871 -0.1185 -0.2113
    1DPPC   GL214344  12.725  12.557   3.305  0.0901 -0.1387  0.0197
    1DPPC   C1A14345  12.350  12.245   3.727  0.1493  0.0507 -0.2405
    1DPPC   C2A14346  12.353  12.383   4.140  0.0343 -0.2420 -0.1926
    1DPPC   C3A14347  12.455  12.434   4.494 -0.0685  0.2565  0.0240
    1DPPC   C4A14348  12.505  12.625   4.896  0.3489 -0.2026  0.1701
    1DPPC   C1B14349  12.884  12.448   3.657 -0.1726 -0.2288 -0.0262
    1DPPC   C2B14350  12.833  12.477   4.092  0.0263  0.0203 -0.0320
    1DPPC   C3B14351  12.937  12.533   4.490 -0.0552  0.0207  0.1040
    1DPPC   C4B14352  13.044  12.634   4.935 -0.0981 -0.1379 -0.1378
    1DPPC   NC314353  21.811   5.918   2.780 -0.1423  0.2352 -0.0598
    1DPPC   PO414354  21.830   5.472   2.803 -0.0991  0.0642 -0.1941
    1DPPC   GL114355  21.618   5.172   3.162 -0.0315 -0.3827 -0.0634
    1DPPC   GL214356  21.332   5.241   3.303  0.1504 -0.0438  0.2419
    1DPPC   C1A14357  21.798   4.896   3.442  0.1179  0.3155 -0.0398
    1DPPC   C2A14358  22.031   4.880   3.786 -0.0428  0.1726  0.0309
    1DPPC   C3A14359  21.787   4.753   4.048  0.0703  0.0224 -0.0192
    1DPPC   C4A14360  21.371   4.908   4.143  0.3501 -0.2973 -0.0972
    1DPPC   C1B14361  21.204   5.337   3.752 -0.0590  0.1190  0.2460
    1DPPC   C2B14362  20.947   5.109   4.015  0.1536 -0.2027 -0.3175
    1DPPC   C3B14363  20.863   4.831   4.272  0.2973 -0.0795  0.2422
    1DPPC   C4B14364  20.708   4.797   4.656  0.1142  0.1502  0.1615
    1DPPC   NC314365   9.473  12.992   2.529  0.1999 -0.2780 -0.1547
    1DPPC   PO414366   9.012  12.774   2.407 -0.0410 -0.1568 -0.0841
    1DPPC   GL114367   9.056  12.800   2.827 -0.0582  0.0617  0.1963
    1DPPC   GL214368   9.272  12.939   2.979 -0.4106 -0.0856  0.2798
    1DPPC   C1A14369   9.126  12.406   3.131  0.0488  0.1058  0.4073
    1DPPC   C2A14370   9.148  12.140   3.452 -0.1864 -0.2461  0.3508
    1DPPC   C3A14371   9.180  11.969   3.802 -0.2727 -0.0139 -0.1142
    1DPPC   C4A14372   9.424  11.720   4.000  0.2303 -0.0644 -0.1218
    1DPPC   C1B14373   9.210  12.941   3.380  0.2058 -0.1949  0.0164
    1DPPC   C2B14374   9.128  13.008   3.848 -0.1175  0.1538  0.0011
    1DPPC   C3B14375   9.137  12.765   4.264 -0.0973 -0.0181  0.1433
    1DPPC   C4B14376   9.135  12.390   4.612 -0.0724 -0.3218  0.3519
    1DPPC   NC314377  17.642  17.686   3.053  0.1808 -0.1515  0.0264
    1DPPC   PO414378  18.072  17.814   2.896  0.0362 -0.1743 -0.0288
    1DPPC   GL114379  18.045  17.948   3.362 -0.0660 -0.2200 -0.1405
    1DPPC   GL214380  17.998  17.669   3.437 -0.1730  0.0750 -0.0635
    1DPPC   C1A14381  17.950  17.989   3.781 -0.1108 -0.0090  0.1167
    1DPPC   C2A14382  17.943  18.004   4.231 -0.1839  0.0876  0.1042
    1DPPC   C3A14383  17.956  17.895   4.672  0.0569 -0.0393  0.1804
    1DPPC   C4A14384  17.739  18.006   5.052  0.1419 -0.3613  0.1579
    1DPPC   C1B14385  17.842  17.443   3.729  0.1693 -0.2170  0.0820
    1DPPC   C2B14386  17.883  17.459   4.115  0.2697  0.2757  0.1445
    1DPPC   C3B14387  17.884  17.349   4.462  0.0582  0.1484 -0.2349
    1DPPC   C4B14388  18.051  17.411   4.817 -0.2061 -0.0935  0.2266
    1DPPC   NC314389  19.456   7.662   2.645 -0.1277  0.1675  0.2870
    1DPPC   PO414390  19.252   7.339   2.995  0.2777 -0.3689  0.1659
    1DPPC   GL114391  19.223   7.356   3.437 -0.1142 -0.2515 -0.0295
    1DPPC   GL214392  19.291   7.033   3.689 -0.4946 -0.1435  0.2061
    1DPPC   C1A14393  19.106   7.505   3.798 -0.2071 -0.3313 -0.0118
    1DPPC   C2A14394  19.211   7.613   4.153  0.0666  0.3480 -0.1413
    1DPPC   C3A14395  19.312   7.384   4.524  0.4454 -0.4230 -0.1917
    1DPPC   C4A14396  19.749   7.338   4.668 -0.0571 -0.0150 -0.0700
    1DPPC   C1B14397  19.413   7.144   4.066 -0.3554  0.1819  0.0086
    1DPPC   C2B14398  19.457   6.849   4.420  0.1791  0.0570 -0.1118
    1DPPC   C3B14399  19.250   6.751   4.963 -0.3295 -0.1972  0.2270
    1DPPC   C4B14400  18.881   6.979   5.033 -0.0062 -0.0571 -0.2555
    1DPPC   NC314401  17.350  14.643   2.086  0.0063  0.0443  0.1328
    1DPPC   PO414402  17.510  14.345   2.430  0.0026 -0.1002  0.0474
    1DPPC   GL114403  17.517  14.160   2.787  0.0008 -0.0260 -0.0767
    1DPPC   GL214404  17.182  14.227   2.783  0.1172  0.0218  0.0414
    1DPPC   C1A14405  17.510  14.255   3.194  0.1591 -0.2006 -0.2795
    1DPPC   C2A14406  17.340  14.127   3.616 -0.2087  0.0293  0.0895
    1DPPC   C3A14407  17.496  13.764   3.626 -0.1422 -0.1655 -0.1642
    1DPPC   C4A14408  17.768  13.447   3.600  0.3416 -0.0680  0.0010
    1DPPC   C1B14409  17.034  14.383   3.131  0.0441 -0.2130  0.0682
    1DPPC   C2B14410  17.001  14.433   3.593  0.1219  0.4165 -0.1298
    1DPPC   C3B14411  16.991  14.419   4.024 -0.0215 -0.0543 -0.0358
    1DPPC   C4B14412  17.016  14.456   4.421  0.0799  0.0974  0.1289
    1DPPC   NC314413  20.778  12.229   2.579  0.2830 -0.3263  0.1203
    1DPPC   PO414414  20.765  11.786   2.712 -0.0298  0.0839 -0.1997
    1DPPC   GL114415  20.822  11.873   3.162  0.0225  0.0589 -0.0157
    1DPPC   GL214416  20.786  12.155   3.078 -0.0873  0.0054 -0.0496
    1DPPC   C1A14417  20.665  12.080   3.538 -0.2820 -0.1111 -0.0617
    1DPPC   C2A14418  20.662  11.915   3.975  0.2794  0.0001  0.0375
    1DPPC   C3A14419  20.786  11.815   4.395  0.1860  0.0910  0.0022
    1DPPC   C4A14420  20.848  11.717   4.824  0.1172  0.0082 -0.4482
    1DPPC   C1B14421  20.820  12.476   3.270  0.1556  0.2245 -0.1991
    1DPPC   C2B14422  20.817  12.571   3.685 -0.2604 -0.0234 -0.0624
    1DPPC   C3B14423  20.766  12.364   4.076 -0.0098  0.0318 -0.0586
    1DPPC   C4B14424  20.943  12.300   4.442  0.2071 -0.1100  0.0700
    1DPPC   NC314425  19.748  15.901   2.153 -0.0752 -0.0066 -0.2508
    1DPPC   PO414426  20.224  15.544   2.289  0.2787  0.1306 -0.0115
    1DPPC   GL114427  20.207  15.523   2.701  0.0137  0.2896  0.2722
    1DPPC   GL214428  19.841  15.673   2.857 -0.0799  0.1229  0.0342
    1DPPC   C1A14429  20.234  15.595   3.231 -0.0338  0.0808  0.0421
    1DPPC   C2A14430  20.184  15.567   3.698 -0.1460  0.0501 -0.3489
    1DPPC   C3A14431  20.304  15.417   4.104  0.1766  0.3863 -0.2389
    1DPPC   C4A14432  20.382  15.227   4.607 -0.0927 -0.0917 -0.1035
    1DPPC   C1B14433  19.717  15.785   3.262 -0.1109  0.1790 -0.2779
    1DPPC   C2B14434  19.628  15.693   3.622  0.0289  0.0239  0.0102
    1DPPC   C3B14435  19.683  15.626   4.094 -0.1809 -0.0869  0.0057
    1DPPC   C4B14436  19.554  15.615   4.513 -0.1496  0.0297  0.1636
    1DPPC   NC314437  19.203  13.831   2.683 -0.1745  0.1552 -0.0565
    1DPPC   PO414438  19.618  13.908   2.740 -0.1823  0.0799 -0.0200
    1DPPC   GL114439  19.380  13.881   3.176 -0.1699 -0.2119 -0.1276
    1DPPC   GL214440  18.958  13.787   3.141  0.1467 -0.0578 -0.1603
    1DPPC   C1A14441  19.368  13.902   3.552 -0.0133  0.2226 -0.0415
    1DPPC   C2A14442  19.417  13.819   3.980 -0.0858  0.0480 -0.1006
    1DPPC   C3A14443  19.556  13.731   4.347 -0.3096  0.0563  0.0452
    1DPPC   C4A14444  19.795  13.610   4.622  0.2391 -0.3730 -0.0628
    1DPPC   C1B14445  18.897  13.695   3.617 -0.4592 -0.0864  0.3419
    1DPPC   C2B14446  18.924  13.689   4.028 -0.0267 -0.0968 -0.0830
    1DPPC   C3B14447  18.814  13.971   4.392  0.0708  0.0961 -0.1165
    1DPPC   C4B14448  18.589  14.222   4.603  0.1141  0.2556 -0.0501
    1DPPC   NC314449  21.257  14.708   2.344  0.1370  0.0638  0.1898
    1DPPC   PO414450  21.030  14.976   2.210 -0.0823 -0.0103 -0.2495
    1DPPC   GL114451  20.894  14.879   2.683  0.2039 -0.2007 -0.4471
    1DPPC   GL214452  20.547  14.760   2.847 -0.1996  0.3491  0.0885
    1DPPC   C1A14453  21.061  14.949   3.166  0.2202 -0.2060  0.1099
    1DPPC   C2A14454  21.148  14.832   3.568 -0.1897  0.1561 -0.1073
    1DPPC   C3A14455  21.158  14.560   3.947 -0.2913 -0.0574  0.0419
    1DPPC   C4A14456  21.044  14.708   4.291  0.0035 -0.2946  0.0207
    1DPPC   C1B14457  20.612  14.770   3.259 -0.1676 -0.2381 -0.0566
    1DPPC   C2B14458  20.661  14.638   3.676 -0.0234  0.1181  0.0853
    1DPPC   C3B14459  20.650  14.506   4.043 -0.1000 -0.1580  0.1412
    1DPPC   C4B14460  20.616  14.260   4.427 -0.1780 -0.1146 -0.0785
    1DPPC   NC314461  18.946  19.612   3.349 -0.0249  0.1143  0.1054
    1DPPC   PO414462  18.745  20.017   3.540 -0.1771 -0.0042 -0.2327
    1DPPC   GL114463  18.609  20.137   3.845  0.1053 -0.1543 -0.0807
    1DPPC   GL214464  18.742  20.349   4.064 -0.0590  0.1387  0.0084
    1DPPC   C1A14465  18.229  20.381   4.015  0.3241  0.0427 -0.2062
    1DPPC   C2A14466  18.061  20.693   4.259 -0.0919  0.1732 -0.0174
    1DPPC   C3A14467  18.183  20.931   4.550  0.1113 -0.0093 -0.0212
    1DPPC   C4A14468  18.504  21.087   4.712 -0.2234  0.0825 -0.2830
    1DPPC   C1B14469  18.724  20.115   4.459  0.1409  0.2112 -0.0586
    1DPPC   C2B14470  18.572  20.168   4.895  0.0910 -0.1402  0.0621
    1DPPC   C3B14471  18.239  20.392   5.248 -0.2757  0.0368  0.3855
    1DPPC   C4B14472  18.490  20.602   5.601  0.0762  0.1150 -0.0740
    1DPPC   NC314473  17.853  13.092   1.978  0.1852  0.0901  0.0620
    1DPPC   PO414474  17.441  13.080   2.110  0.0082  0.0899 -0.2491
    1DPPC   GL114475  17.406  12.969   2.619  0.1979  0.1469 -0.3169
    1DPPC   GL214476  17.005  12.967   2.816 -0.1469  0.2048 -0.2118
    1DPPC   C1A14477  17.576  12.857   3.033 -0.2069 -0.0563  0.0060
    1DPPC   C2A14478  17.625  12.920   3.506  0.3535 -0.0326  0.3820
    1DPPC   C3A14479  17.729  12.941   3.895  0.2301 -0.0961  0.0212
    1DPPC   C4A14480  17.590  13.152   4.358 -0.2889 -0.3424  0.0039
    1DPPC   C1B14481  17.089  12.955   3.163 -0.2372 -0.0349 -0.0126
    1DPPC   C2B14482  17.154  12.898   3.653 -0.1420 -0.0626 -0.0798
    1DPPC   C3B14483  17.079  12.918   4.132 -0.1429  0.0018 -0.1911
    1DPPC   C4B14484  17.237  12.884   4.590  0.3972  0.2901 -0.1156
    1DPPC   NC314485  18.341  10.908   2.545  0.0199 -0.0582 -0.4127
    1DPPC   PO414486  18.681  11.099   2.755 -0.2553  0.1483 -0.1224
    1DPPC   GL114487  18.486  11.047   3.119 -0.0402  0.0476  0.0497
    1DPPC   GL214488  18.241  10.884   3.033  0.0148 -0.0980  0.3184
    1DPPC   C1A14489  18.468  11.136   3.474  0.1072 -0.0808 -0.1309
    1DPPC   C2A14490  18.528  11.189   3.922  0.2808 -0.2072  0.3729
    1DPPC   C3A14491  18.396  11.159   4.291  0.0605  0.0521  0.2455
    1DPPC   C4A14492  18.247  10.949   4.679  0.3544 -0.2555  0.2480
    1DPPC   C1B14493  18.098  10.821   3.401 -0.0718  0.2638  0.0900
    1DPPC   C2B14494  18.100  10.948   3.837 -0.1341  0.2030  0.4786
    1DPPC   C3B14495  17.943  10.991   4.233  0.0113  0.1029  0.1913
    1DPPC   C4B14496  17.803  11.072   4.658 -0.0242 -0.1225  0.0593
    1DPPC   NC314497  14.864  15.636   1.971 -0.4671 -0.1061 -0.0079
    1DPPC   PO414498  14.871  15.563   2.444 -0.0726 -0.1236  0.1572
    1DPPC   GL114499  14.785  15.426   2.907 -0.0530 -0.1500  0.1917
    1DPPC   GL214500  15.002  15.698   2.973  0.1434  0.0661  0.3484
    1DPPC   C1A14501  14.620  15.533   3.339  0.0100  0.0896  0.3805
    1DPPC   C2A14502  14.469  15.524   3.799 -0.0561  0.0728  0.0508
    1DPPC   C3A14503  14.387  15.486   4.184 -0.0146  0.0837 -0.2037
    1DPPC   C4A14504  14.446  15.363   4.621  0.1548 -0.2512 -0.0836
    1DPPC   C1B14505  15.142  15.777   3.342  0.1901 -0.1150  0.0038
    1DPPC   C2B14506  14.954  15.763   3.777 -0.1035  0.0270  0.4214
    1DPPC   C3B14507  14.861  15.602   4.107 -0.0862  0.0899 -0.1377
    1DPPC   C4B14508  14.858  15.554   4.505 -0.1871  0.3060 -0.0598
    1DPPC   NC314509   9.891   1.112   3.556 -0.2553 -0.3577  0.2701
    1DPPC   PO414510   9.678   0.751   3.696  0.1610  0.0957 -0.0906
    1DPPC   GL114511   9.669   0.686   4.210 -0.1165 -0.1709 -0.2563
    1DPPC   GL214512   9.899   0.587   4.299  0.0920  0.0376 -0.0332
    1DPPC   C1A14513   9.448   0.741   4.606  0.3782 -0.2491 -0.1273
    1DPPC   C2A14514   9.316   0.786   5.019  0.1795  0.0049  0.2260
    1DPPC   C3A14515   8.949   0.916   5.388 -0.1893 -0.1457 -0.0330
    1DPPC   C4A14516   8.658   1.303   5.467  0.0962 -0.1913 -0.2275
    1DPPC   C1B14517   9.986   0.261   4.618 -0.0853 -0.1062  0.1409
    1DPPC   C2B14518   9.788   0.092   5.007  0.0556 -0.3327 -0.0814
    1DPPC   C3B14519   9.428  -0.022   5.113 -0.0954  0.1788  0.0544
    1DPPC   C4B14520   9.429  -0.364   5.403 -0.1215 -0.0672  0.2737
    1DPPC   NC314521  16.385  13.899   2.533 -0.1224  0.0432 -0.1350
    1DPPC   PO414522  16.539  13.524   2.478 -0.1646 -0.1250 -0.0292
    1DPPC   GL114523  16.451  13.507   2.920  0.0557 -0.2896  0.3230
    1DPPC   GL214524  16.448  13.231   3.063 -0.1516  0.0894  0.1956
    1DPPC   C1A14525  16.426  13.736   3.281  0.0395 -0.2236 -0.0736
    1DPPC   C2A14526  16.427  13.776   3.681  0.4125 -0.0915 -0.1513
    1DPPC   C3A14527  16.419  13.651   4.147 -0.0404  0.1075  0.3416
    1DPPC   C4A14528  16.208  13.862   4.437  0.0730 -0.5154  0.1797
    1DPPC   C1B14529  16.327  13.248   3.458  0.0489 -0.2078 -0.3884
    1DPPC   C2B14530  16.269  13.229   3.936 -0.0359  0.2181  0.3641
    1DPPC   C3B14531  16.356  13.170   4.391 -0.0282  0.2377 -0.0406
    1DPPC   C4B14532  16.473  13.438   4.691  0.3260  0.1915 -0.0552
    1DPPC   NC314533  16.922  20.510   3.019 -0.0693  0.1792  0.2753
    1DPPC   PO414534  16.973  20.101   3.243  0.1022  0.0468  0.0830
    1DPPC   GL114535  17.161  20.159   3.581 -0.1636 -0.3312 -0.0015
    1DPPC   GL214536  17.356  20.409   3.518 -0.0181  0.0854  0.1172
    1DPPC   C1A14537  17.307  20.223   4.031  0.2459 -0.2396 -0.1144
    1DPPC   C2A14538  17.194  20.325   4.384 -0.0359 -0.0275 -0.0255
    1DPPC   C3A14539  17.307  20.585   4.692  0.3214  0.0827 -0.1689
    1DPPC   C4A14540  17.346  20.753   5.124 -0.0753  0.1827  0.0678
    1DPPC   C1B14541  17.548  20.624   3.882  0.0896 -0.0782 -0.0721
    1DPPC   C2B14542  17.626  20.765   4.376 -0.2420 -0.1418 -0.0059
    1DPPC   C3B14543  17.722  21.026   4.730  0.2134 -0.1965  0.0274
    1DPPC   C4B14544  17.541  21.231   5.079 -0.3358 -0.1383 -0.0581
    1DPPC   NC314545  23.071  14.677   2.038  0.4132 -0.0552  0.3377
    1DPPC   PO414546  22.656  14.553   2.089 -0.2541 -0.1907 -0.1301
    1DPPC   GL114547  22.847  14.611   2.539  0.1653 -0.3018 -0.1097
    1DPPC   GL214548  23.070  14.376   2.580  0.0521  0.4122 -0.0375
    1DPPC   C1A14549  23.009  15.043   2.696  0.0815 -0.1946 -0.0082
    1DPPC   C2A14550  23.145  15.457   2.853  0.0557 -0.0713 -0.0709
    1DPPC   C3A14551  23.169  15.916   2.738  0.4195  0.3943  0.0993
    1DPPC   C4A14552  23.019  16.232   2.464  0.0098  0.2253 -0.1131
    1DPPC   C1B14553  23.230  14.554   2.861 -0.0152  0.0163  0.0109
    1DPPC   C2B14554  23.357  14.883   3.113  0.0417 -0.2012  0.1003
    1DPPC   C3B14555  23.241  15.395   3.346 -0.0777  0.4399  0.2314
    1DPPC   C4B14556  23.227  15.735   3.572  0.0300  0.0557  0.0398
    1DPPC   NC314557  21.855  18.656   2.763 -0.1679 -0.0017 -0.0056
    1DPPC   PO414558  21.627  18.329   2.746 -0.1176 -0.0588 -0.3257
    1DPPC   GL114559  21.667  18.178   3.220  0.1499  0.1751 -0.3051
    1DPPC   GL214560  21.928  17.937   3.323  0.2059 -0.0463  0.1051
    1DPPC   C1A14561  21.639  18.041   3.696 -0.1561  0.2616 -0.1574
    1DPPC   C2A14562  21.713  17.915   4.079  0.0896 -0.0822 -0.1275
    1DPPC   C3A14563  21.783  17.840   4.457  0.2575 -0.0028 -0.0996
    1DPPC   C4A14564  21.855  17.905   4.866 -0.0785 -0.2301  0.1970
    1DPPC   C1B14565  21.616  17.565   3.456  0.0029  0.1279 -0.2306
    1DPPC   C2B14566  21.570  17.475   3.962 -0.0858  0.2211  0.0237
    1DPPC   C3B14567  21.569  17.398   4.407  0.0861  0.0298  0.0121
    1DPPC   C4B14568  21.920  17.436   4.713  0.4774 -0.0714  0.1160
    1DPPC   NC314569  11.265  19.650   2.642 -0.1194 -0.0201  0.1140
    1DPPC   PO414570  10.958  19.986   2.623 -0.0805  0.4214 -0.0521
    1DPPC   GL114571  10.637  19.880   2.863 -0.1613 -0.1821  0.1668
    1DPPC   GL214572  10.388  20.102   2.863  0.0281  0.1266 -0.2012
    1DPPC   C1A14573  10.580  19.822   3.379 -0.1363  0.0345 -0.0041
    1DPPC   C2A14574  10.514  19.908   3.782 -0.1337  0.3050 -0.3661
    1DPPC   C3A14575  10.564  19.849   4.317 -0.1099  0.1539  0.2826
    1DPPC   C4A14576  10.301  19.949   4.648  0.1888  0.1340 -0.0154
    1DPPC   C1B14577  10.461  20.276   3.206 -0.0729 -0.3976  0.0454
    1DPPC   C2B14578  10.270  20.326   3.626 -0.0764 -0.2646 -0.3338
    1DPPC   C3B14579  10.033  20.147   3.957  0.1631  0.1102  0.1133
    1DPPC   C4B14580  10.055  19.870   4.228  0.1136  0.1089 -0.1410
    1DPPC   NC314581  16.195  13.172   2.617  0.0754 -0.1561 -0.0367
    1DPPC   PO414582  15.771  13.244   2.677  0.1576  0.0243  0.1854
    1DPPC   GL114583  15.766  13.297   3.063  0.0651  0.2726  0.1346
    1DPPC   GL214584  15.781  13.044   3.320 -0.0982  0.2473 -0.0495
    1DPPC   C1A14585  15.965  13.588   3.359 -0.2172 -0.3801 -0.0905
    1DPPC   C2A14586  15.948  13.610   3.802 -0.1020  0.2495 -0.2926
    1DPPC   C3A14587  15.970  13.430   4.265  0.1859 -0.3091  0.2646
    1DPPC   C4A14588  15.948  13.324   4.704 -0.2297  0.0993 -0.0891
    1DPPC   C1B14589  15.848  13.112   3.665 -0.2089 -0.4002 -0.1148
    1DPPC   C2B14590  15.724  13.038   4.124  0.0246  0.1764 -0.0977
    1DPPC   C3B14591  15.704  12.916   4.619  0.2839  0.1473 -0.2055
    1DPPC   C4B14592  15.693  12.561   4.974 -0.0080  0.0268  0.2382
    1DPPC   NC314593  13.848  15.797   2.550 -0.3676 -0.1167  0.3276
    1DPPC   PO414594  13.913  15.354   2.571  0.2923 -0.0268 -0.3629
    1DPPC   GL114595  13.723  15.503   2.962  0.1214  0.1566  0.0985
    1DPPC   GL214596  13.390  15.625   2.826  0.2237  0.1059  0.0247
    1DPPC   C1A14597  13.474  15.391   3.286  0.0917 -0.0121 -0.0641
    1DPPC   C2A14598  13.396  15.399   3.666  0.1635 -0.0795  0.0709
    1DPPC   C3A14599  13.283  15.403   4.099 -0.0226  0.0952 -0.2862
    1DPPC   C4A14600  13.279  15.479   4.514 -0.0463 -0.1883  0.0268
    1DPPC   C1B14601  13.079  15.625   3.039 -0.1339  0.4989  0.0719
    1DPPC   C2B14602  12.961  15.761   3.519 -0.3838  0.0083 -0.1232
    1DPPC   C3B14603  12.914  15.775   3.872  0.1731 -0.1092 -0.4174
    1DPPC   C4B14604  12.992  15.784   4.265 -0.1167  0.0570 -0.2003
    1DPPC   NC314605  12.363  17.227   2.246  0.0949  0.0786 -0.3268
    1DPPC   PO414606  12.207  17.641   2.225 -0.2344  0.0789  0.1100
    1DPPC   GL114607  12.208  17.576   2.693 -0.1295  0.0683  0.2894
    1DPPC   GL214608  12.373  17.692   2.845  0.0350  0.0154 -0.1832
    1DPPC   C1A14609  11.983  17.318   3.094 -0.0958 -0.1029 -0.4756
    1DPPC   C2A14610  11.952  17.308   3.515  0.0414 -0.1247 -0.2821
    1DPPC   C3A14611  11.875  17.218   3.918  0.3209  0.1085  0.0615
    1DPPC   C4A14612  11.634  17.197   4.295 -0.0306  0.1300 -0.4164
    1DPPC   C1B14613  12.320  17.655   3.332  0.0227  0.0209  0.1034
    1DPPC   C2B14614  12.365  17.548   3.778  0.0047  0.2984 -0.0837
    1DPPC   C3B14615  12.223  17.319   4.211 -0.0200 -0.0434  0.1928
    1DPPC   C4B14616  12.341  17.248   4.557 -0.1425  0.1879 -0.2594
    1DPPC   NC314617  17.440  16.251   2.856  0.0261 -0.0744 -0.0120
    1DPPC   PO414618  17.860  16.407   2.683 -0.2003 -0.2548 -0.0461
    1DPPC   GL114619  17.861  16.120   3.094 -0.2558 -0.0843  0.0400
    1DPPC   GL214620  18.160  15.937   3.220  0.2764 -0.1996 -0.0104
    1DPPC   C1A14621  17.735  16.140   3.439  0.0226 -0.1147 -0.1100
    1DPPC   C2A14622  17.651  16.002   3.891 -0.0069 -0.2274 -0.0772
    1DPPC   C3A14623  17.649  15.817   4.391  0.1682 -0.0513 -0.2282
    1DPPC   C4A14624  17.527  15.644   4.746  0.0171 -0.0904 -0.3972
    1DPPC   C1B14625  18.180  15.940   3.669  0.3415  0.0488  0.1478
    1DPPC   C2B14626  18.078  15.799   4.147  0.0300 -0.1316  0.1912
    1DPPC   C3B14627  18.121  15.852   4.622 -0.0673 -0.1789 -0.0255
    1DPPC   C4B14628  17.939  15.705   4.992 -0.0944 -0.3735  0.1052
    1DPPC   NC314629  13.697   9.711   2.633  0.0478 -0.1064 -0.0233
    1DPPC   PO414630  13.920  10.094   2.630 -0.0827 -0.0959  0.0609
    1DPPC   GL114631  14.108  10.176   3.088  0.1412 -0.0609 -0.2216
    1DPPC   GL214632  13.907  10.298   3.383  0.0132 -0.0846 -0.1754
    1DPPC   C1A14633  14.295   9.990   3.458 -0.0350 -0.0827  0.0853
    1DPPC   C2A14634  14.374  10.070   3.861 -0.0456 -0.1976 -0.0875
    1DPPC   C3A14635  14.343  10.048   4.260  0.0639 -0.3575 -0.0986
    1DPPC   C4A14636  14.342  10.063   4.759 -0.1390  0.0205 -0.1078
    1DPPC   C1B14637  14.178  10.481   3.697  0.3883 -0.0724 -0.1074
    1DPPC   C2B14638  14.279  10.632   4.121  0.1755 -0.2006  0.0850
    1DPPC   C3B14639  14.383  10.490   4.499  0.0427 -0.2465 -0.0435
    1DPPC   C4B14640  14.467  10.714   4.848 -0.0039  0.0167  0.2167
    1DPPC   NC314641   8.732  14.211   2.053 -0.3125  0.1090 -0.0279
    1DPPC   PO414642   8.411  14.435   2.140  0.1600  0.1560 -0.0197
    1DPPC   GL114643   8.554  14.349   2.523  0.0833 -0.2518  0.0321
    1DPPC   GL214644   8.761  14.117   2.647  0.3823 -0.2996 -0.0242
    1DPPC   C1A14645   8.441  14.485   2.961  0.0091 -0.0832  0.1098
    1DPPC   C2A14646   8.334  14.579   3.390  0.1052  0.1283  0.2139
    1DPPC   C3A14647   8.197  14.425   3.778  0.0957 -0.1576 -0.1375
    1DPPC   C4A14648   7.868  14.577   4.093  0.0959 -0.0142 -0.0730
    1DPPC   C1B14649   8.982  14.261   3.003 -0.0832  0.2133 -0.0574
    1DPPC   C2B14650   8.842  14.440   3.381  0.0130  0.0568 -0.2941
    1DPPC   C3B14651   8.707  14.429   3.878 -0.3183 -0.1314  0.2728
    1DPPC   C4B14652   8.460  14.437   4.224 -0.0736 -0.0735  0.1414
    1DPPC   NC314653   8.380  21.727   2.128  0.0326  0.3784 -0.1012
    1DPPC   PO414654   8.107  21.588   2.361  0.2037  0.2669  0.0017
    1DPPC   GL114655   8.412  21.728   2.680  0.0667 -0.0504 -0.1253
    1DPPC   GL214656   8.695  21.664   2.513 -0.1770  0.1335  0.0452
    1DPPC   C1A14657   8.620  21.860   2.952 -0.0330 -0.1467  0.0702
    1DPPC   C2A14658   8.658  22.265   3.081  0.0110 -0.0994 -0.2266
    1DPPC   C3A14659   8.715  22.410   3.466  0.4055  0.4204  0.1450
    1DPPC   C4A14660   8.871  22.270   3.801 -0.0590  0.0059 -0.0807
    1DPPC   C1B14661   8.613  21.245   2.845 -0.0016 -0.1058 -0.0500
    1DPPC   C2B14662   8.902  21.084   3.195 -0.4667  0.0174 -0.1334
    1DPPC   C3B14663   9.359  21.247   3.349 -0.1532 -0.1104  0.1118
    1DPPC   C4B14664   9.589  21.413   3.498  0.1121 -0.2571  0.1711
    1DPPC   NC314665  19.628  11.396   2.785 -0.2709 -0.2473 -0.1937
    1DPPC   PO414666  19.284  11.680   3.004  0.0076 -0.1166 -0.3660
    1DPPC   GL114667  19.470  11.592   3.364  0.3508  0.1858  0.1856
    1DPPC   GL214668  19.470  11.232   3.439  0.1146  0.0248 -0.0993
    1DPPC   C1A14669  19.602  11.724   3.793  0.0363 -0.4323  0.3437
    1DPPC   C2A14670  19.671  11.724   4.226  0.0838 -0.0458  0.1067
    1DPPC   C3A14671  19.975  11.897   4.436 -0.2332 -0.2120 -0.0396
    1DPPC   C4A14672  20.328  12.188   4.357 -0.1109 -0.0026  0.0880
    1DPPC   C1B14673  19.483  11.204   3.923 -0.1028  0.0482 -0.1169
    1DPPC   C2B14674  19.492  11.200   4.335  0.1384 -0.1273 -0.4568
    1DPPC   C3B14675  19.313  10.850   4.649 -0.2744  0.0311 -0.1352
    1DPPC   C4B14676  19.098  10.570   4.445  0.3448 -0.1830  0.2245
    1DPPC   NC314677  16.399  17.689   2.546  0.1043  0.2320  0.1747
    1DPPC   PO414678  16.086  17.263   2.578  0.2265 -0.0929  0.1928
    1DPPC   GL114679  16.156  17.413   3.012 -0.2390 -0.0050 -0.0359
    1DPPC   GL214680  16.309  17.676   3.100 -0.3413 -0.1848 -0.0211
    1DPPC   C1A14681  16.231  17.253   3.464 -0.4123 -0.1420 -0.3186
    1DPPC   C2A14682  16.245  17.228   3.928 -0.0734  0.1643  0.2129
    1DPPC   C3A14683  16.293  17.206   4.377  0.1971 -0.4593  0.1598
    1DPPC   C4A14684  16.276  17.316   4.815  0.1533 -0.1666 -0.2755
    1DPPC   C1B14685  16.390  17.696   3.528  0.0397  0.1532  0.1180
    1DPPC   C2B14686  16.395  17.711   3.954 -0.0117  0.0867 -0.4871
    1DPPC   C3B14687  16.221  17.701   4.397 -0.0702  0.5144  0.1118
    1DPPC   C4B14688  15.951  17.679   4.816  0.2937 -0.1464 -0.3007
    1DPPC   NC314689  27.250  28.313   3.398  0.0180  0.0553  0.3052
    1DPPC   PO414690  27.303  28.837   3.199 -0.0927  0.0792 -0.1041
    1DPPC   GL114691  27.344  28.978   3.514  0.2807 -0.0839  0.2754
    1DPPC   GL214692  27.224  29.323   3.607 -0.3223  0.1209 -0.0555
    1DPPC   C1A14693  27.365  29.047   4.048  0.3140 -0.0259 -0.0889
    1DPPC   C2A14694  27.125  28.842   4.497 -0.2967  0.2310 -0.0777
    1DPPC   C3A14695  27.102  28.638   4.901 -0.3387  0.0427  0.2023
    1DPPC   C4A14696  26.981  28.713   5.238  0.1345  0.0456 -0.0589
    1DPPC   C1B14697  26.971  29.334   4.022  0.1093  0.3290  0.2070
    1DPPC   C2B14698  27.165  29.444   4.406  0.0019  0.3121 -0.1260
    1DPPC   C3B14699  27.081  29.728   4.657  0.4178 -0.1748 -0.2569
    1DPPC   C4B14700  26.730  29.921   4.684  0.1450 -0.4321 -0.0869
    1DPPC   NC314701  16.171   9.908   2.618  0.0878  0.0883  0.3851
    1DPPC   PO414702  16.293   9.616   3.005  0.2093 -0.2433 -0.2377
    1DPPC   GL114703  16.008   9.739   3.322 -0.3247 -0.1750  0.1079
    1DPPC   GL214704  15.739   9.760   3.355 -0.0236 -0.0895 -0.0379
    1DPPC   C1A14705  15.932   9.621   3.827  0.2515  0.2929  0.0023
    1DPPC   C2A14706  16.146   9.463   4.205  0.1377  0.2879 -0.2539
    1DPPC   C3A14707  16.143   9.420   4.670 -0.1513  0.0228 -0.1191
    1DPPC   C4A14708  16.438   9.733   5.040 -0.0959  0.0502  0.0487
    1DPPC   C1B14709  15.707  10.162   3.659 -0.1594  0.1117 -0.1341
    1DPPC   C2B14710  15.755  10.099   4.013  0.1199 -0.0496  0.1252
    1DPPC   C3B14711  15.944   9.953   4.283 -0.3768 -0.1043 -0.0367
    1DPPC   C4B14712  16.119   9.938   4.744 -0.1889 -0.1830  0.0026
    1DPPC   NC314713  12.619  19.403   2.572 -0.0308  0.3081  0.0549
    1DPPC   PO414714  12.964  19.088   2.571  0.3090 -0.2901  0.1314
    1DPPC   GL114715  12.911  19.400   2.967  0.0477  0.0935  0.1709
    1DPPC   GL214716  13.211  19.653   3.014 -0.0768  0.1155  0.1587
    1DPPC   C1A14717  12.844  19.679   3.314 -0.2066  0.2614  0.1728
    1DPPC   C2A14718  12.648  19.706   3.730 -0.1224 -0.1623  0.2553
    1DPPC   C3A14719  12.583  19.830   4.105  0.0310  0.0671 -0.0179
    1DPPC   C4A14720  12.452  19.738   4.451  0.1266 -0.0761 -0.1462
    1DPPC   C1B14721  13.251  19.401   3.349 -0.1012 -0.1472  0.0090
    1DPPC   C2B14722  13.150  19.436   3.808 -0.0480 -0.0612  0.0620
    1DPPC   C3B14723  12.947  19.393   4.219 -0.1329 -0.1394  0.3367
    1DPPC   C4B14724  12.950  19.479   4.605  0.0916 -0.1899  0.1683
    1DPPC   NC314725  14.299  17.060   2.323  0.0450 -0.1111  0.1510
    1DPPC   PO414726  13.900  17.191   2.375  0.0100  0.0603  0.2376
    1DPPC   GL114727  13.805  17.009   2.793 -0.1493 -0.0635 -0.3179
    1DPPC   GL214728  14.017  17.069   2.864  0.1441 -0.1724  0.0225
    1DPPC   C1A14729  13.521  16.841   3.167 -0.0444  0.0653 -0.0056
    1DPPC   C2A14730  13.461  16.788   3.543 -0.1206 -0.0860 -0.0396
    1DPPC   C3A14731  13.441  16.713   3.953 -0.0221 -0.1473 -0.2063
    1DPPC   C4A14732  13.480  16.748   4.437  0.0333 -0.1159 -0.2853
    1DPPC   C1B14733  13.864  17.329   3.193  0.0958  0.0209  0.2069
    1DPPC   C2B14734  13.736  17.251   3.567 -0.0957 -0.0418  0.1468
    1DPPC   C3B14735  13.801  17.209   3.968 -0.2134 -0.2505 -0.1646
    1DPPC   C4B14736  13.643  17.240   4.400 -0.0260  0.0162  0.0531
    1DPPC   NC314737  14.453  15.260   2.551 -0.0290  0.0501  0.0521
    1DPPC   PO414738  14.370  15.687   2.682  0.2299  0.0925  0.1328
    1DPPC   GL114739  14.262  15.530   3.022 -0.0287  0.3199  0.2977
    1DPPC   GL214740  14.206  15.201   2.915  0.1461  0.1502 -0.3578
    1DPPC   C1A14741  14.020  15.583   3.351  0.0717 -0.1522 -0.2519
    1DPPC   C2A14742  13.980  15.551   3.826  0.0888 -0.0513 -0.1893
    1DPPC   C3A14743  13.902  15.379   4.205  0.0768  0.1498 -0.0762
    1DPPC   C4A14744  13.860  15.166   4.579  0.2068 -0.1459  0.2470
    1DPPC   C1B14745  14.338  15.107   3.377  0.2879 -0.0297  0.0335
    1DPPC   C2B14746  14.270  15.089   3.851  0.0713  0.1930  0.1135
    1DPPC   C3B14747  14.183  14.926   4.238  0.0109 -0.5092 -0.1241
    1DPPC   C4B14748  13.884  14.647   4.472  0.0136  0.1229 -0.0754
    1DPPC   NC314749  13.446   8.958   3.431 -0.1278  0.1084 -0.1862
    1DPPC   PO414750  13.107   9.041   3.128  0.1740 -0.0130 -0.0923
    1DPPC   GL114751  13.062   9.227   3.545  0.0033 -0.1011  0.4072
    1DPPC   GL214752  12.718   9.180   3.700  0.2108 -0.0630 -0.0115
    1DPPC   C1A14753  13.160   9.382   3.873  0.1992  0.0889 -0.0230
    1DPPC   C2A14754  13.221   9.365   4.312  0.0282 -0.0965  0.1047
    1DPPC   C3A14755  13.213   9.368   4.738  0.1085  0.1167 -0.0964
    1DPPC   C4A14756  13.238   9.330   5.194 -0.0428 -0.0574  0.1349
    1DPPC   C1B14757  12.746   9.300   4.113  0.2445 -0.0260 -0.0517
    1DPPC   C2B14758  12.740   9.366   4.573  0.1138 -0.1773 -0.1458
    1DPPC   C3B14759  12.732   9.226   4.980 -0.0776 -0.1633 -0.1176
    1DPPC   C4B14760  12.824   9.075   5.359  0.2045 -0.0816 -0.1392
    1DPPC   NC314761  16.164  12.440   2.653  0.0385  0.3073 -0.4295
    1DPPC   PO414762  15.879  12.772   2.598 -0.3319  0.0455  0.0378
    1DPPC   GL114763  16.091  12.845   2.961 -0.0199 -0.0060  0.1030
    1DPPC   GL214764  16.450  12.775   2.869  0.1181  0.0662 -0.4421
    1DPPC   C1A14765  16.161  12.719   3.404  0.0099 -0.4769  0.0553
    1DPPC   C2A14766  16.146  12.686   3.790 -0.2525 -0.1230  0.1023
    1DPPC   C3A14767  16.130  12.731   4.240 -0.1321 -0.1578  0.0265
    1DPPC   C4A14768  16.220  12.781   4.699 -0.2110 -0.1653 -0.3435
    1DPPC   C1B14769  16.685  12.749   3.343 -0.0299 -0.1661  0.3208
    1DPPC   C2B14770  16.622  12.745   3.826 -0.1773 -0.0985  0.1029
    1DPPC   C3B14771  16.640  12.827   4.246 -0.1955  0.0412  0.0364
    1DPPC   C4B14772  16.783  13.024   4.633 -0.0787 -0.2845 -0.1167
    1DPPC   NC314773  15.535  15.183   2.465 -0.0308  0.2470 -0.0258
    1DPPC   PO414774  15.354  15.533   2.617 -0.0001  0.2993  0.1817
    1DPPC   GL114775  15.482  15.662   2.939  0.0928 -0.1178  0.0421
    1DPPC   GL214776  15.788  15.869   2.999 -0.0669 -0.0462 -0.1754
    1DPPC   C1A14777  15.564  15.576   3.346 -0.1031  0.2019 -0.1717
    1DPPC   C2A14778  15.437  15.574   3.677  0.5495 -0.0513 -0.3235
    1DPPC   C3A14779  15.311  15.342   4.030 -0.3346  0.2130  0.2826
    1DPPC   C4A14780  15.139  15.160   4.311  0.0399 -0.0135  0.1335
    1DPPC   C1B14781  15.873  15.946   3.435 -0.2415 -0.1189 -0.0493
    1DPPC   C2B14782  15.855  15.862   3.944  0.0653  0.1429  0.2637
    1DPPC   C3B14783  15.599  15.736   4.342 -0.0234  0.0980  0.2804
    1DPPC   C4B14784  15.350  15.577   4.656  0.0059 -0.0450  0.1247
    1DPPC   NC314785  13.902  21.116   2.473 -0.2594  0.3120  0.1252
    1DPPC   PO414786  13.784  20.708   2.396 -0.2487 -0.0719 -0.0911
    1DPPC   GL114787  13.934  20.741   2.773 -0.0056 -0.0180 -0.1081
    1DPPC   GL214788  13.662  20.557   2.991 -0.1378 -0.0466  0.0380
    1DPPC   C1A14789  14.151  21.011   3.085 -0.1680  0.1075  0.1141
    1DPPC   C2A14790  14.085  21.098   3.488 -0.3448  0.2402 -0.3580
    1DPPC   C3A14791  13.985  20.945   3.859  0.1528 -0.2355 -0.2322
    1DPPC   C4A14792  14.016  21.313   4.085  0.1920  0.0442  0.3061
    1DPPC   C1B14793  13.721  20.766   3.396  0.1588  0.2036 -0.0563
    1DPPC   C2B14794  13.609  20.677   3.747 -0.1495 -0.0103  0.0346
    1DPPC   C3B14795  13.472  20.574   4.041  0.1926 -0.3458 -0.2539
    1DPPC   C4B14796  13.242  20.663   4.403 -0.1063 -0.1357 -0.1503
    1DPPC   NC314797  13.221  18.237   2.481 -0.0142 -0.0460 -0.1178
    1DPPC   PO414798  12.816  18.108   2.564 -0.0178 -0.7267 -0.0673
    1DPPC   GL114799  12.574  18.152   2.964 -0.0516  0.1028  0.1146
    1DPPC   GL214800  12.704  18.544   3.102 -0.0972  0.1232  0.1988
    1DPPC   C1A14801  12.687  18.006   3.328  0.0920 -0.0311  0.2347
    1DPPC   C2A14802  12.669  18.017   3.799  0.3266  0.2638 -0.0002
    1DPPC   C3A14803  12.457  17.939   4.120 -0.0710  0.0549 -0.1418
    1DPPC   C4A14804  12.278  17.743   4.507 -0.0103 -0.1188 -0.1824
    1DPPC   C1B14805  12.864  18.516   3.428 -0.1507  0.1215 -0.0801
    1DPPC   C2B14806  12.768  18.471   3.863 -0.5400 -0.2827 -0.0862
    1DPPC   C3B14807  12.555  18.400   4.181  0.0363 -0.0256  0.1311
    1DPPC   C4B14808  12.403  18.440   4.636 -0.1413  0.2843 -0.1729
    1DPPC   NC314809  10.459  14.115   2.454 -0.2349 -0.0423  0.0214
    1DPPC   PO414810  10.023  14.248   2.408 -0.0767 -0.0206  0.1665
    1DPPC   GL114811  10.200  14.503   2.726  0.0393  0.0196 -0.1417
    1DPPC   GL214812  10.451  14.320   2.907 -0.1557 -0.2563  0.0576
    1DPPC   C1A14813  10.222  14.754   3.031  0.2008 -0.0511  0.1557
    1DPPC   C2A14814  10.181  14.903   3.483  0.1255  0.0004 -0.2268
    1DPPC   C3A14815  10.077  14.986   3.922  0.0206  0.1142 -0.1108
    1DPPC   C4A14816  10.150  15.027   4.421  0.1661 -0.2592  0.4849
    1DPPC   C1B14817  10.312  14.443   3.400  0.3484 -0.2113  0.3855
    1DPPC   C2B14818  10.343  14.500   3.806 -0.1399 -0.2115  0.0684
    1DPPC   C3B14819  10.204  14.557   4.145 -0.0852 -0.0630  0.0404
    1DPPC   C4B14820   9.931  14.403   4.420 -0.1106  0.1501 -0.0838
    1DPPC   NC314821  20.610  15.757   2.409 -0.1387 -0.0174 -0.4185
    1DPPC   PO414822  20.934  15.905   2.549  0.0252  0.0313 -0.2458
    1DPPC   GL114823  21.218  15.789   2.910 -0.2588  0.0287  0.1764
    1DPPC   GL214824  21.311  15.476   2.881  0.1500  0.0208  0.0266
    1DPPC   C1A14825  21.537  15.783   3.189  0.2268  0.0698 -0.0349
    1DPPC   C2A14826  21.556  15.727   3.560 -0.1102  0.0085  0.0698
    1DPPC   C3A14827  21.568  15.615   3.987 -0.2539  0.3042  0.3533
    1DPPC   C4A14828  21.636  15.457   4.390  0.4005  0.2011 -0.1145
    1DPPC   C1B14829  21.298  15.351   3.332  0.0188 -0.2726 -0.2931
    1DPPC   C2B14830  21.473  15.202   3.749  0.0173  0.1416  0.0730
    1DPPC   C3B14831  21.343  15.079   4.109  0.1062 -0.0561 -0.2312
    1DPPC   C4B14832  21.260  15.132   4.554 -0.0407  0.2101 -0.1199
    1DPPC   NC314833  18.521  17.588   2.943 -0.2140  0.1310  0.0594
    1DPPC   PO414834  18.633  17.242   2.761  0.0836 -0.0822 -0.0658
    1DPPC   GL114835  18.467  17.141   3.137 -0.2425  0.3569  0.0679
    1DPPC   GL214836  18.563  16.826   3.094 -0.2243 -0.2021 -0.1258
    1DPPC   C1A14837  18.496  17.278   3.517  0.1016  0.0319 -0.1753
    1DPPC   C2A14838  18.651  17.215   3.933  0.1024  0.1934  0.3396
    1DPPC   C3A14839  18.625  17.168   4.371 -0.1010 -0.1668  0.2919
    1DPPC   C4A14840  18.627  17.004   4.735 -0.1057  0.0887  0.1989
    1DPPC   C1B14841  18.528  16.740   3.569 -0.1260 -0.3137 -0.1416
    1DPPC   C2B14842  18.568  16.743   3.996 -0.3011  0.2380 -0.1931
    1DPPC   C3B14843  18.628  16.553   4.419 -0.3040  0.0259  0.2337
    1DPPC   C4B14844  18.468  16.475   4.784 -0.5559  0.1497 -0.1436
    1DPPC   NC314845  21.177  17.143   2.714 -0.2099 -0.0371 -0.0922
    1DPPC   PO414846  20.976  16.791   2.625 -0.1857 -0.2049 -0.1441
    1DPPC   GL114847  20.949  16.571   2.995 -0.0123  0.0386  0.0936
    1DPPC   GL214848  21.016  16.209   3.026  0.0894 -0.0065  0.0429
    1DPPC   C1A14849  20.916  16.347   3.445  0.0125 -0.0023  0.0806
    1DPPC   C2A14850  20.910  16.354   3.833 -0.1801  0.2179  0.1827
    1DPPC   C3A14851  20.834  16.337   4.253 -0.2539 -0.1351  0.1915
    1DPPC   C4A14852  20.951  16.038   4.601  0.0695 -0.1533 -0.1919
    1DPPC   C1B14853  21.030  15.887   3.335 -0.0487  0.1591  0.0130
    1DPPC   C2B14854  21.101  15.764   3.778 -0.1614 -0.0958  0.0434
    1DPPC   C3B14855  21.010  15.802   4.129  0.0317 -0.2114  0.1670
    1DPPC   C4B14856  21.120  15.507   4.321 -0.0946 -0.1844  0.0240
    1DPPC   NC314857  15.638  17.280   2.866 -0.0433 -0.0389 -0.0201
    1DPPC   PO414858  15.254  17.127   2.685  0.1565 -0.2177  0.0286
    1DPPC   GL114859  15.080  17.216   3.045  0.5182 -0.1300 -0.2858
    1DPPC   GL214860  14.730  17.188   3.102 -0.1152  0.1622 -0.0312
    1DPPC   C1A14861  15.191  17.084   3.452  0.2423  0.1344 -0.1051
    1DPPC   C2A14862  15.131  16.973   3.838 -0.1845  0.1634 -0.1023
    1DPPC   C3A14863  15.096  16.876   4.257 -0.1045  0.4296  0.0495
    1DPPC   C4A14864  14.967  16.901   4.687 -0.0625  0.1601  0.1452
    1DPPC   C1B14865  14.343  17.229   3.274 -0.1060  0.0719 -0.2425
    1DPPC   C2B14866  14.412  17.299   3.754  0.1703 -0.3688  0.0471
    1DPPC   C3B14867  14.220  17.274   4.201 -0.0964  0.0202 -0.0998
    1DPPC   C4B14868  14.158  17.360   4.600 -0.2183 -0.1065  0.2351
    1DPPC   NC314869  20.497  11.071   2.545 -0.1068  0.0534 -0.2574
    1DPPC   PO414870  20.007  11.072   2.796 -0.2887 -0.0084 -0.4082
    1DPPC   GL114871  20.353  11.150   3.080  0.0261 -0.0429 -0.4274
    1DPPC   GL214872  20.499  11.445   3.070  0.3038  0.3080 -0.0718
    1DPPC   C1A14873  20.464  11.013   3.459 -0.0017  0.0782  0.2192
    1DPPC   C2A14874  20.359  10.934   3.950  0.0959 -0.1493 -0.2647
    1DPPC   C3A14875  20.554  10.936   4.282 -0.3342  0.1044  0.0143
    1DPPC   C4A14876  20.945  10.891   4.512  0.1603  0.0765  0.2601
    1DPPC   C1B14877  20.862  11.489   3.466  0.2366  0.0699 -0.3527
    1DPPC   C2B14878  21.168  11.756   3.699 -0.0373  0.1884  0.1993
    1DPPC   C3B14879  21.171  11.762   4.116 -0.4079 -0.1529 -0.2643
    1DPPC   C4B14880  21.380  12.030   4.394  0.0190  0.1408  0.0247
    1DPPC   NC314881  14.578   7.308   3.485 -0.0498  0.1172  0.1007
    1DPPC   PO414882  14.273   7.095   3.602 -0.1781 -0.0182 -0.3601
    1DPPC   GL114883  14.165   7.164   4.013 -0.1353  0.2191  0.0524
    1DPPC   GL214884  14.235   7.428   4.086 -0.0161  0.1022  0.2578
    1DPPC   C1A14885  14.057   7.132   4.467 -0.0763  0.0208  0.0488
    1DPPC   C2A14886  14.232   7.365   4.939 -0.1088 -0.0170  0.4124
    1DPPC   C3A14887  14.502   7.355   5.283  0.0815 -0.1059  0.0030
    1DPPC   C4A14888  14.778   6.981   5.334  0.2880 -0.2353 -0.0493
    1DPPC   C1B14889  14.320   7.556   4.432  0.0337  0.1948 -0.2627
    1DPPC   C2B14890  14.422   7.816   4.845  0.0062 -0.2595 -0.2778
    1DPPC   C3B14891  14.653   7.907   5.296  0.0833 -0.1137  0.1186
    1DPPC   C4B14892  14.586   8.250   5.614  0.3359 -0.1442  0.0440
    1DPPC   NC314893  10.990  19.854   2.150 -0.1226  0.0319 -0.2404
    1DPPC   PO414894  10.812  19.537   2.455  0.1496  0.2285  0.1035
    1DPPC   GL114895  10.851  19.430   2.924 -0.0225 -0.2487  0.3213
    1DPPC   GL214896  11.167  19.343   3.059 -0.1840 -0.0234 -0.2402
    1DPPC   C1A14897  10.775  19.286   3.340  0.0263 -0.2004  0.0261
    1DPPC   C2A14898  10.727  19.393   3.737  0.0158  0.0003 -0.1259
    1DPPC   C3A14899  10.674  19.418   4.070  0.1738  0.1444 -0.0568
    1DPPC   C4A14900  11.044  19.500   4.300  0.1341  0.0644  0.1945
    1DPPC   C1B14901  11.257  19.154   3.475  0.2053 -0.0541  0.4439
    1DPPC   C2B14902  11.211  19.285   3.838 -0.2071  0.1217  0.1761
    1DPPC   C3B14903  11.372  18.985   4.127  0.3518  0.0527  0.1226
    1DPPC   C4B14904  11.299  18.859   4.551 -0.2124  0.2616 -0.0859
    1DPPC   NC314905  25.022  17.451   2.193 -0.0831  0.2585 -0.5209
    1DPPC   PO414906  24.676  17.348   2.363  0.3540 -0.3762 -0.0162
    1DPPC   GL114907  24.637  17.431   2.750  0.2643 -0.0300 -0.0248
    1DPPC   GL214908  24.298  17.517   2.777 -0.1536 -0.0359 -0.0713
    1DPPC   C1A14909  24.691  17.062   3.129  0.0258 -0.1214  0.0372
    1DPPC   C2A14910  24.996  16.956   3.503 -0.0347  0.0514  0.0582
    1DPPC   C3A14911  25.236  16.992   3.838 -0.0709 -0.0532 -0.0103
    1DPPC   C4A14912  25.357  17.075   4.322  0.0811  0.0421  0.1540
    1DPPC   C1B14913  24.195  17.428   3.228 -0.0122  0.3578 -0.1862
    1DPPC   C2B14914  24.270  17.016   3.591 -0.1758  0.1487  0.1235
    1DPPC   C3B14915  24.339  16.903   4.123  0.0012 -0.0403  0.2743
    1DPPC   C4B14916  24.115  16.955   4.477  0.2338  0.1756 -0.2464
    1DPPC   NC314917  16.454  18.805   2.957 -0.3497  0.0301 -0.0376
    1DPPC   PO414918  16.812  18.663   3.140 -0.0062  0.0914  0.1435
    1DPPC   GL114919  16.870  18.532   3.512  0.3013  0.1089 -0.0234
    1DPPC   GL214920  17.041  18.401   3.555 -0.0707 -0.2194 -0.0839
    1DPPC   C1A14921  16.763  18.832   3.782 -0.3733 -0.1196  0.3978
    1DPPC   C2A14922  16.698  18.831   4.200  0.0565  0.0390  0.0468
    1DPPC   C3A14923  16.691  18.750   4.598 -0.2250 -0.1091 -0.0647
    1DPPC   C4A14924  16.552  18.821   5.057 -0.1187 -0.0459 -0.0080
    1DPPC   C1B14925  16.966  18.448   4.027 -0.1523 -0.1069 -0.0884
    1DPPC   C2B14926  16.971  18.359   4.471 -0.3446 -0.2341 -0.1036
    1DPPC   C3B14927  16.934  18.304   4.837  0.0249  0.1160 -0.1677
    1DPPC   C4B14928  16.912  17.975   5.140 -0.0762  0.0464  0.0480
    1DPPC   NC314929  14.564  10.831   2.564  0.0575  0.0856  0.1023
    1DPPC   PO414930  15.069  10.808   2.548  0.1046  0.1300 -0.2365
    1DPPC   GL114931  15.058  10.950   2.963  0.0366 -0.2998  0.0480
    1DPPC   GL214932  15.276  10.801   3.170 -0.2652  0.1698 -0.1611
    1DPPC   C1A14933  14.798  11.053   3.265 -0.0322  0.1659 -0.2970
    1DPPC   C2A14934  14.748  11.193   3.668  0.0316  0.4218 -0.1534
    1DPPC   C3A14935  14.884  11.240   4.031  0.0553 -0.0237  0.0954
    1DPPC   C4A14936  15.024  11.285   4.505 -0.1755  0.0115 -0.0418
    1DPPC   C1B14937  15.162  10.817   3.578  0.0395 -0.3940 -0.2682
    1DPPC   C2B14938  15.270  10.908   4.005  0.1243 -0.0237 -0.2131
    1DPPC   C3B14939  15.274  10.871   4.435  0.3270  0.0871 -0.1756
    1DPPC   C4B14940  15.152  11.154   4.946 -0.0011  0.1455  0.0719
    1DPPC   NC314941  20.002  15.046   2.269 -0.0137  0.0502  0.3299
    1DPPC   PO414942  20.199  14.663   2.453  0.1703  0.2860 -0.0569
    1DPPC   GL114943  20.043  15.023   2.785  0.1718  0.2658  0.1259
    1DPPC   GL214944  20.294  15.108   3.017 -0.0791 -0.1377 -0.3504
    1DPPC   C1A14945  19.761  15.152   3.044  0.0872 -0.0016  0.1201
    1DPPC   C2A14946  19.838  15.296   3.393  0.1169  0.1015  0.4902
    1DPPC   C3A14947  19.870  15.210   3.892 -0.1986 -0.0834  0.1171
    1DPPC   C4A14948  19.898  15.245   4.319  0.2383  0.0965  0.2328
    1DPPC   C1B14949  20.352  15.145   3.455  0.1155 -0.0714 -0.1021
    1DPPC   C2B14950  20.359  15.045   3.830 -0.0069  0.3227  0.0444
    1DPPC   C3B14951  20.346  14.908   4.186  0.0241 -0.0676 -0.0424
    1DPPC   C4B14952  20.473  14.703   4.560  0.1324  0.0585 -0.1551
    1DPPC   NC314953  18.646  12.385   2.516  0.2149 -0.1694  0.1971
    1DPPC   PO414954  18.931  12.684   2.338  0.2666 -0.1443  0.0453
    1DPPC   GL114955  19.076  12.604   2.765  0.0370  0.3785  0.0131
    1DPPC   GL214956  19.368  12.448   2.659 -0.1195 -0.2111 -0.1431
    1DPPC   C1A14957  18.906  12.514   3.184  0.1117  0.3272 -0.0359
    1DPPC   C2A14958  18.872  12.249   3.538  0.2404 -0.1259 -0.1508
    1DPPC   C3A14959  18.799  12.176   3.948  0.2216  0.0814  0.0950
    1DPPC   C4A14960  18.732  12.070   4.336 -0.1816  0.1257 -0.1173
    1DPPC   C1B14961  19.543  12.584   3.068 -0.0455 -0.1443 -0.0970
    1DPPC   C2B14962  19.765  12.588   3.432 -0.2597 -0.1382  0.2873
    1DPPC   C3B14963  19.720  12.629   3.790 -0.0125  0.0328  0.1505
    1DPPC   C4B14964  19.940  12.834   4.156 -0.2083  0.0797  0.0067
    1DPPC   NC314965   8.989   9.793   3.133 -0.2241 -0.1841  0.0343
    1DPPC   PO414966   9.464   9.810   3.034 -0.0068 -0.0224 -0.1264
    1DPPC   GL114967   9.363  10.101   3.416  0.2260  0.0258 -0.0207
    1DPPC   GL214968   9.158  10.236   3.350  0.2035 -0.0566  0.1454
    1DPPC   C1A14969   9.343   9.973   3.818 -0.0534 -0.2200  0.0152
    1DPPC   C2A14970   9.381  10.024   4.201 -0.4345 -0.4214 -0.1442
    1DPPC   C3A14971   9.232  10.037   4.597 -0.0122  0.0884 -0.2261
    1DPPC   C4A14972   9.322  10.023   4.974  0.2308 -0.0958  0.2256
    1DPPC   C1B14973   8.999  10.391   3.800 -0.0202 -0.1191  0.1805
    1DPPC   C2B14974   8.989  10.382   4.221 -0.0015 -0.0602  0.1733
    1DPPC   C3B14975   8.865  10.412   4.623 -0.0965  0.2111 -0.1652
    1DPPC   C4B14976   8.815  10.215   4.975  0.1315 -0.0194  0.2566
    1DPPC   NC314977  18.471   8.936   2.835  0.1711 -0.1747 -0.0930
    1DPPC   PO414978  18.403   8.456   2.875  0.1064 -0.1167 -0.3798
    1DPPC   GL114979  18.335   8.690   3.311  0.0828  0.1702  0.0303
    1DPPC   GL214980  18.057   8.828   3.458  0.4466 -0.0391 -0.3155
    1DPPC   C1A14981  18.617   8.758   3.618 -0.1081  0.1845 -0.1518
    1DPPC   C2A14982  18.721   8.972   3.982 -0.0526  0.0782  0.0943
    1DPPC   C3A14983  18.746   9.198   4.362 -0.2077 -0.0367 -0.1341
    1DPPC   C4A14984  18.860   9.293   4.848 -0.2073 -0.2662 -0.0683
    1DPPC   C1B14985  18.168   9.123   3.770 -0.2169  0.1137 -0.1082
    1DPPC   C2B14986  18.258   9.093   4.221 -0.0900 -0.1206  0.0081
    1DPPC   C3B14987  18.306   9.303   4.713  0.2946 -0.2027  0.1448
    1DPPC   C4B14988  18.367   9.644   4.886  0.0353  0.0017  0.0652
    1DPPC   NC314989  19.870  14.310   2.542  0.0684  0.2851  0.1409
    1DPPC   PO414990  19.705  14.747   2.565 -0.0364 -0.2873  0.1973
    1DPPC   GL114991  19.598  14.682   3.015 -0.0495 -0.0833 -0.1939
    1DPPC   GL214992  19.626  14.341   3.060 -0.0200 -0.0045 -0.1066
    1DPPC   C1A14993  19.486  14.895   3.349 -0.2034  0.1156 -0.2335
    1DPPC   C2A14994  19.555  14.838   3.761 -0.2515 -0.0648 -0.1834
    1DPPC   C3A14995  19.845  14.780   4.109  0.0319 -0.0909  0.1321
    1DPPC   C4A14996  19.768  14.797   4.536 -0.1493  0.2215  0.2485
    1DPPC   C1B14997  19.476  14.421   3.463 -0.0730 -0.1694 -0.1036
    1DPPC   C2B14998  19.492  14.313   3.872  0.1013 -0.0081 -0.0757
    1DPPC   C3B14999  19.693  14.237   4.252  0.5030  0.0511 -0.0223
    1DPPC   C4B15000  19.705  14.145   4.634 -0.2217  0.0520  0.4823
    1DPPC   NC315001  15.100  15.949   2.334 -0.1777 -0.3136  0.1433
    1DPPC   PO415002  15.049  16.378   2.389  0.1077 -0.1575 -0.1337
    1DPPC   GL115003  15.060  16.619   2.808  0.1090 -0.0247 -0.1513
    1DPPC   GL215004  15.338  16.614   2.993  0.0815  0.0999 -0.1615
    1DPPC   C1A15005  14.882  16.761   3.162 -0.1132 -0.0447  0.4908
    1DPPC   C2A15006  14.639  16.907   3.568  0.0829 -0.0063  0.1416
    1DPPC   C3A15007  14.621  16.929   3.908  0.2975 -0.0648  0.0008
    1DPPC   C4A15008  14.437  16.850   4.275  0.1024 -0.0912 -0.1042
    1DPPC   C1B15009  15.388  16.620   3.360 -0.1036 -0.1274  0.0902
    1DPPC   C2B15010  15.371  16.573   3.795 -0.2490  0.1799  0.0454
    1DPPC   C3B15011  15.418  16.558   4.237 -0.1440  0.0280  0.1602
    1DPPC   C4B15012  15.199  16.431   4.643 -0.1966  0.2973 -0.0824
    1DPPC   NC315013   8.951  25.581   2.087 -0.0324 -0.1567  0.1337
    1DPPC   PO415014   8.941  25.322   2.383 -0.0762  0.3342 -0.1964
    1DPPC   GL115015   8.761  25.378   2.873  0.3536 -0.1052  0.1653
    1DPPC   GL215016   8.778  25.718   3.089 -0.1783 -0.2465 -0.1882
    1DPPC   C1A15017   8.445  25.383   3.025  0.0664  0.1066 -0.1364
    1DPPC   C2A15018   8.342  25.248   3.408 -0.1715 -0.2091 -0.1617
    1DPPC   C3A15019   8.249  25.024   3.839 -0.4790 -0.2739 -0.3640
    1DPPC   C4A15020   8.286  24.708   4.136  0.0245 -0.2331 -0.2895
    1DPPC   C1B15021   8.969  25.914   3.553 -0.1313  0.0144 -0.0044
    1DPPC   C2B15022   9.083  25.903   4.063  0.3988 -0.0321  0.2963
    1DPPC   C3B15023   9.172  25.516   4.303 -0.1438  0.0815  0.0595
    1DPPC   C4B15024   9.337  25.229   4.144  0.0428  0.0556 -0.1914
    1DPPC   NC315025  15.039  13.718   2.160  0.3427  0.1178  0.1254
    1DPPC   PO415026  15.034  14.143   2.228 -0.2117 -0.3249  0.1772
    1DPPC   GL115027  14.931  14.361   2.519  0.0910 -0.1200 -0.1463
    1DPPC   GL215028  14.792  14.280   2.773  0.3016 -0.0575 -0.0352
    1DPPC   C1A15029  15.082  14.669   2.885  0.2017  0.1675 -0.2339
    1DPPC   C2A15030  15.305  14.744   3.255 -0.0241 -0.0863  0.2009
    1DPPC   C3A15031  15.130  14.737   3.592 -0.2633  0.0406 -0.1985
    1DPPC   C4A15032  15.162  14.762   3.966 -0.3863  0.2610  0.0626
    1DPPC   C1B15033  14.474  14.172   3.203 -0.1818 -0.1493  0.1881
    1DPPC   C2B15034  14.441  14.201   3.720 -0.0867  0.2552  0.0272
    1DPPC   C3B15035  14.614  14.090   4.162  0.0640  0.2182  0.1066
    1DPPC   C4B15036  14.774  14.151   4.638  0.1266  0.3098 -0.1515
    1DPPC   NC315037   4.480  14.487   2.574  0.4047  0.1459 -0.0503
    1DPPC   PO415038   4.018  14.452   2.626 -0.0217  0.2527  0.0002
    1DPPC   GL115039   4.293  14.319   3.038  0.0218  0.0427 -0.2244
    1DPPC   GL215040   4.311  14.122   3.249  0.1467 -0.2380 -0.1037
    1DPPC   C1A15041   4.369  14.610   3.380 -0.1883  0.0965 -0.2285
    1DPPC   C2A15042   4.376  14.848   3.803 -0.1198 -0.0613 -0.0051
    1DPPC   C3A15043   4.616  14.940   4.132  0.0285  0.0478  0.2142
    1DPPC   C4A15044   4.936  14.838   4.360  0.2727 -0.1311  0.3799
    1DPPC   C1B15045   4.611  14.218   3.501 -0.1355  0.0793  0.0270
    1DPPC   C2B15046   4.779  14.549   3.885  0.2326 -0.0203 -0.1545
    1DPPC   C3B15047   5.169  14.858   3.928  0.0297  0.0348  0.2754
    1DPPC   C4B15048   5.250  15.266   4.063  0.2529 -0.2111 -0.2287
    1DPPC   NC315049  20.689  19.712   3.236 -0.0528 -0.1098  0.0420
    1DPPC   PO415050  20.396  19.947   3.428 -0.0597  0.3706 -0.0281
    1DPPC   GL115051  20.390  19.585   3.723  0.1219  0.0496 -0.0275
    1DPPC   GL215052  20.122  19.458   3.624  0.0283  0.1298 -0.1223
    1DPPC   C1A15053  20.472  19.438   4.054  0.1250  0.2706 -0.1685
    1DPPC   C2A15054  20.601  19.374   4.432 -0.1763  0.0098 -0.1851
    1DPPC   C3A15055  20.700  19.517   4.860 -0.0748  0.3638  0.0387
    1DPPC   C4A15056  20.733  19.615   5.341  0.0566 -0.0242  0.1643
    1DPPC   C1B15057  20.009  19.455   4.035 -0.0877 -0.0842 -0.0816
    1DPPC   C2B15058  20.069  19.578   4.506 -0.1607 -0.2356 -0.0396
    1DPPC   C3B15059  19.763  19.762   4.743 -0.0737  0.2539  0.0174
    1DPPC   C4B15060  19.379  19.832   5.025  0.0131 -0.3135  0.0191
    1DPPC   NC315061   9.948  15.780   2.527  0.2188 -0.0547 -0.1995
    1DPPC   PO415062  10.173  15.393   2.327  0.1634  0.3898  0.2203
    1DPPC   GL115063  10.261  15.466   2.750 -0.1038 -0.0779  0.2889
    1DPPC   GL215064  10.588  15.300   2.994  0.0842 -0.3078  0.4509
    1DPPC   C1A15065  10.350  15.717   3.024 -0.0632  0.3477  0.0020
    1DPPC   C2A15066  10.336  15.863   3.501  0.0804  0.0482  0.1686
    1DPPC   C3A15067  10.203  15.896   3.899  0.1269  0.2515  0.4058
    1DPPC   C4A15068   9.814  15.795   4.203 -0.0160 -0.1112  0.4717
    1DPPC   C1B15069  10.296  15.257   3.179 -0.1168 -0.3793  0.0502
    1DPPC   C2B15070  10.066  15.388   3.448 -0.0913 -0.1145 -0.0067
    1DPPC   C3B15071  10.083  15.459   3.985  0.1431  0.0087 -0.1091
    1DPPC   C4B15072   9.718  15.287   4.320 -0.1761  0.0136 -0.0439
    1DPPC   NC315073  10.308  11.645   2.286 -0.2593  0.1191  0.1059
    1DPPC   PO415074  10.240  11.612   2.773  0.1674  0.3039  0.0551
    1DPPC   GL115075  10.069  11.792   3.156 -0.1553 -0.1748  0.2088
    1DPPC   GL215076   9.867  11.523   3.412  0.3472 -0.2373  0.0094
    1DPPC   C1A15077  10.154  11.874   3.586 -0.0332 -0.0190  0.1788
    1DPPC   C2A15078  10.295  12.154   4.025  0.1706  0.3525  0.2123
    1DPPC   C3A15079  10.204  12.193   4.413 -0.0965 -0.0539  0.0115
    1DPPC   C4A15080  10.362  12.429   4.762 -0.1694 -0.2210 -0.0494
    1DPPC   C1B15081   9.854  11.451   3.820 -0.0185 -0.0333  0.2040
    1DPPC   C2B15082   9.874  11.432   4.268  0.1460 -0.1490 -0.3198
    1DPPC   C3B15083   9.801  11.540   4.686  0.0253 -0.0802 -0.0731
    1DPPC   C4B15084   9.975  11.627   5.043  0.1511 -0.2033 -0.0518
    1DPPC   NC315085  17.290  11.820   2.015 -0.0743 -0.1004 -0.0917
    1DPPC   PO415086  17.288  11.678   2.424  0.3695 -0.1000  0.1901
    1DPPC   GL115087  17.267  11.516   2.864  0.0052 -0.0309  0.0096
    1DPPC   GL215088  17.408  11.167   2.924 -0.1903 -0.0235 -0.0232
    1DPPC   C1A15089  17.176  11.723   3.229  0.1957  0.2062  0.1420
    1DPPC   C2A15090  16.968  11.876   3.498 -0.3009 -0.1751 -0.2905
    1DPPC   C3A15091  16.923  11.889   3.938  0.0471  0.3804  0.1728
    1DPPC   C4A15092  16.862  11.983   4.293  0.0309  0.0465  0.1863
    1DPPC   C1B15093  17.231  11.210   3.295  0.0212 -0.1084 -0.0299
    1DPPC   C2B15094  17.084  11.373   3.640  0.3176 -0.1108 -0.1921
    1DPPC   C3B15095  16.795  11.408   3.971  0.3617 -0.0531 -0.1432
    1DPPC   C4B15096  16.568  11.417   4.414  0.1687  0.1893  0.1680
    1DPPC   NC315097  23.252  11.918   2.544  0.0408 -0.0125  0.0519
    1DPPC   PO415098  23.016  12.264   2.400  0.1419 -0.0218  0.0134
    1DPPC   GL115099  23.212  12.345   2.799 -0.1738  0.2483  0.1788
    1DPPC   GL215100  23.464  12.576   2.923  0.0177  0.2113  0.2004
    1DPPC   C1A15101  23.379  12.223   3.211  0.0437  0.0479 -0.1739
    1DPPC   C2A15102  23.573  12.193   3.552 -0.0793 -0.0711  0.0820
    1DPPC   C3A15103  24.076  12.226   3.591  0.0276  0.1872 -0.1206
    1DPPC   C4A15104  24.577  12.298   3.508  0.1334  0.0026  0.0169
    1DPPC   C1B15105  23.321  12.740   3.321 -0.0906  0.0844  0.0173
    1DPPC   C2B15106  23.474  12.598   3.755  0.0817 -0.1334  0.1962
    1DPPC   C3B15107  23.799  12.687   3.837  0.1326  0.1297  0.0742
    1DPPC   C4B15108  24.206  12.464   4.019  0.1680 -0.4058 -0.0904
    1DPPC   NC315109   9.252   8.854   3.099 -0.1056  0.0980 -0.0167
    1DPPC   PO415110   9.187   8.409   2.920 -0.2334  0.0338 -0.0251
    1DPPC   GL115111   9.057   8.520   3.436 -0.2403 -0.1419  0.6866
    1DPPC   GL215112   8.808   8.385   3.587 -0.2456 -0.2869 -0.1307
    1DPPC   C1A15113   9.161   8.700   3.780  0.3070 -0.1273 -0.0302
    1DPPC   C2A15114   9.254   8.599   4.256  0.2298  0.1628 -0.0597
    1DPPC   C3A15115   9.269   8.593   4.705  0.0463 -0.2257  0.0116
    1DPPC   C4A15116   9.254   8.629   5.176  0.1816 -0.0912  0.1326
    1DPPC   C1B15117   8.795   8.491   4.113  0.3273 -0.2658 -0.1234
    1DPPC   C2B15118   8.872   8.336   4.451  0.2745 -0.2030 -0.1592
    1DPPC   C3B15119   8.896   7.871   4.555  0.1200  0.0527 -0.0184
    1DPPC   C4B15120   8.735   7.723   4.920 -0.0872 -0.0354  0.0282
    1DPPC   NC315121  10.482   9.828   3.147 -0.3028  0.3857  0.5453
    1DPPC   PO415122  10.844   9.625   3.160 -0.0141  0.1001  0.1897
    1DPPC   GL115123  10.893   9.541   3.564 -0.2871 -0.2695  0.0590
    1DPPC   GL215124  11.040   9.832   3.684 -0.0710 -0.1896 -0.2541
    1DPPC   C1A15125  10.706   9.613   4.038 -0.0669 -0.0949  0.1153
    1DPPC   C2A15126  10.658   9.797   4.351 -0.2656  0.1610 -0.2437
    1DPPC   C3A15127  10.547   9.793   4.824  0.1240 -0.1191 -0.0226
    1DPPC   C4A15128  10.393   9.541   5.210  0.0781  0.1283  0.0706
    1DPPC   C1B15129  10.950  10.045   4.023 -0.3810  0.0652 -0.0954
    1DPPC   C2B15130  10.873  10.255   4.344  0.0230  0.1947 -0.0864
    1DPPC   C3B15131  10.810  10.248   4.735 -0.3017 -0.0996 -0.1756
    1DPPC   C4B15132  10.644  10.062   5.202 -0.0419  0.0195 -0.1607
    1DPPC   NC315133  11.655   9.070   3.338  0.0101 -0.0596 -0.2177
    1DPPC   PO415134  11.756   8.564   3.318  0.2068 -0.1001  0.1302
    1DPPC   GL115135  11.507   8.558   3.700 -0.0130 -0.3050  0.1568
    1DPPC   GL215136  11.562   8.428   3.877 -0.1252 -0.0363 -0.0591
    1DPPC   C1A15137  11.494   8.978   3.975 -0.0320  0.0044 -0.3532
    1DPPC   C2A15138  11.608   9.139   4.395 -0.2263 -0.1259 -0.1606
    1DPPC   C3A15139  11.720   9.143   4.855  0.2048 -0.0660  0.0520
    1DPPC   C4A15140  11.600   9.111   5.252  0.2812  0.0596  0.0113
    1DPPC   C1B15141  11.488   8.311   4.200  0.4407 -0.3672  0.0748
    1DPPC   C2B15142  11.633   8.256   4.599  0.1780 -0.1302  0.0316
    1DPPC   C3B15143  11.631   8.192   5.047 -0.2125  0.0537  0.1198
    1DPPC   C4B15144  11.592   7.922   5.403 -0.2592 -0.1488  0.0865
    1DPPC   NC315145  14.234  13.773   2.188  0.0752 -0.2016 -0.0470
    1DPPC   PO415146  14.601  13.894   2.429 -0.1963 -0.0917 -0.3128
    1DPPC   GL115147  14.629  13.786   2.841  0.1425  0.0005 -0.3156
    1DPPC   GL215148  14.498  13.476   2.988  0.0178  0.1253 -0.1081
    1DPPC   C1A15149  14.960  13.721   3.140  0.0973 -0.0103  0.0414
    1DPPC   C2A15150  14.985  13.655   3.574 -0.2283  0.1444 -0.1278
    1DPPC   C3A15151  14.978  13.641   4.037 -0.0866  0.1212  0.1714
    1DPPC   C4A15152  14.976  13.691   4.504  0.0675  0.1658 -0.0036
    1DPPC   C1B15153  14.522  13.643   3.382 -0.2732 -0.0015 -0.2721
    1DPPC   C2B15154  14.559  13.637   3.801 -0.0834 -0.1814  0.1808
    1DPPC   C3B15155  14.425  13.645   4.264 -0.0913 -0.0147 -0.0552
    1DPPC   C4B15156  14.489  13.469   4.646 -0.1152  0.2200  0.2907
    1DPPC   NC315157  21.971  13.518   2.394 -0.1267  0.0087 -0.3659
    1DPPC   PO415158  21.740  13.130   2.558 -0.4565 -0.1250 -0.0389
    1DPPC   GL115159  21.583  13.328   2.833 -0.0768  0.2464  0.0779
    1DPPC   GL215160  21.309  13.513   2.844 -0.1724  0.1845 -0.4432
    1DPPC   C1A15161  21.340  13.244   3.302  0.0266 -0.2103  0.3520
    1DPPC   C2A15162  21.366  13.386   3.694 -0.0313  0.0653 -0.2214
    1DPPC   C3A15163  21.710  13.606   4.005 -0.1122 -0.0227  0.0019
    1DPPC   C4A15164  22.145  13.710   4.080 -0.2580  0.1413 -0.0374
    1DPPC   C1B15165  21.262  13.716   3.302  0.1372 -0.1716 -0.0304
    1DPPC   C2B15166  21.640  13.880   3.612 -0.1477  0.2764 -0.0033
    1DPPC   C3B15167  21.614  14.174   4.002  0.0947  0.1137 -0.0861
    1DPPC   C4B15168  21.483  14.406   4.320 -0.0956  0.6084  0.0259
    1DPPC   NC315169  18.718  14.348   2.208 -0.3659  0.3552  0.0188
    1DPPC   PO415170  18.716  14.178   2.561 -0.2064 -0.3333  0.0744
    1DPPC   GL115171  18.525  14.170   3.008 -0.4192  0.1406 -0.0031
    1DPPC   GL215172  18.413  13.820   3.048 -0.2619  0.2524  0.1845
    1DPPC   C1A15173  18.492  14.008   3.493  0.1009  0.0559  0.0356
    1DPPC   C2A15174  18.577  13.969   3.897  0.3157 -0.0708  0.0684
    1DPPC   C3A15175  18.310  13.915   4.266  0.0706  0.1813 -0.0792
    1DPPC   C4A15176  18.339  13.791   4.685  0.0548  0.3159 -0.2881
    1DPPC   C1B15177  18.225  13.643   3.291  0.2232  0.1556  0.2014
    1DPPC   C2B15178  18.276  13.527   3.731  0.0005  0.0611  0.2466
    1DPPC   C3B15179  18.458  13.463   4.203 -0.0717  0.0087 -0.1014
    1DPPC   C4B15180  18.745  13.478   4.499 -0.2534  0.2098 -0.0490
    1DPPC   NC315181  15.901  26.196   2.923 -0.0201  0.1009  0.0079
    1DPPC   PO415182  16.053  25.760   3.185 -0.2652  0.0198 -0.0819
    1DPPC   GL115183  15.868  25.518   3.624  0.0400  0.2329 -0.0335
    1DPPC   GL215184  15.808  25.184   3.652 -0.0767 -0.4526 -0.0441
    1DPPC   C1A15185  15.855  25.744   3.976  0.0994  0.0760 -0.1201
    1DPPC   C2A15186  15.678  26.056   4.309  0.2131 -0.2761 -0.0988
    1DPPC   C3A15187  15.428  26.357   4.295 -0.0323 -0.0163 -0.4755
    1DPPC   C4A15188  15.146  26.630   4.476 -0.1652  0.0417 -0.1638
    1DPPC   C1B15189  15.831  25.091   4.044  0.0571  0.4145  0.1771
    1DPPC   C2B15190  15.711  25.183   4.563 -0.0144  0.1206 -0.1650
    1DPPC   C3B15191  15.588  25.327   4.979 -0.1064  0.0755 -0.3031
    1DPPC   C4B15192  15.385  25.017   5.339  0.0125  0.3920 -0.0337
    1DPPC   NC315193  18.243  11.814   1.996  0.2918  0.5057  0.2299
    1DPPC   PO415194  18.140  11.670   2.380  0.4369  0.4519  0.0709
    1DPPC   GL115195  17.995  11.828   2.717  0.0673 -0.1840  0.2178
    1DPPC   GL215196  17.589  11.879   2.776 -0.2565 -0.1154  0.1862
    1DPPC   C1A15197  18.074  11.876   3.012 -0.2932 -0.2897 -0.0373
    1DPPC   C2A15198  17.958  11.818   3.450  0.1433 -0.2714 -0.1319
    1DPPC   C3A15199  17.816  11.958   3.835  0.2104  0.0546  0.3105
    1DPPC   C4A15200  17.773  11.891   4.342  0.2280  0.1344 -0.0008
    1DPPC   C1B15201  17.511  12.042   3.199  0.0055  0.0076 -0.1942
    1DPPC   C2B15202  17.381  12.112   3.693  0.3057 -0.0031  0.1582
    1DPPC   C3B15203  17.355  12.123   4.177 -0.0892  0.0321  0.0738
    1DPPC   C4B15204  17.340  11.922   4.600  0.1502 -0.0210  0.1119
    1DPPC   NC315205   5.766  19.544   2.258  0.0624 -0.0761 -0.1406
    1DPPC   PO415206   5.322  19.647   2.328 -0.1447 -0.0075  0.0822
    1DPPC   GL115207   5.167  19.660   2.700 -0.2275 -0.2038  0.2121
    1DPPC   GL215208   5.178  19.312   2.749  0.0763 -0.3324 -0.3529
    1DPPC   C1A15209   5.190  19.963   3.029 -0.1203  0.2220 -0.0363
    1DPPC   C2A15210   5.244  20.413   3.274  0.0627  0.0128 -0.1911
    1DPPC   C3A15211   5.464  20.723   3.527 -0.1088  0.1592  0.0601
    1DPPC   C4A15212   5.298  21.152   3.626 -0.1853 -0.1398  0.3568
    1DPPC   C1B15213   5.049  19.092   3.052 -0.2187 -0.2582 -0.0435
    1DPPC   C2B15214   4.973  19.085   3.443 -0.0705 -0.2227  0.0913
    1DPPC   C3B15215   4.674  19.249   3.756  0.1867  0.0720 -0.4757
    1DPPC   C4B15216   4.916  19.628   3.933  0.0346 -0.1252 -0.0184
    1DPPC   NC315217  13.117  21.584   2.778  0.2235 -0.0077 -0.0585
    1DPPC   PO415218  13.430  21.329   2.623 -0.2950 -0.0090 -0.0104
    1DPPC   GL115219  13.719  21.233   2.959  0.2095  0.1142 -0.1825
    1DPPC   GL215220  13.391  21.058   3.035  0.2605 -0.1885 -0.0559
    1DPPC   C1A15221  13.618  21.363   3.445 -0.0611 -0.2736  0.1879
    1DPPC   C2A15222  13.578  21.230   3.826 -0.1370 -0.1511 -0.0170
    1DPPC   C3A15223  13.596  21.024   4.240 -0.1489 -0.0106  0.1540
    1DPPC   C4A15224  13.848  20.570   4.360  0.1593 -0.1715  0.1520
    1DPPC   C1B15225  13.221  20.965   3.431  0.0416 -0.2935 -0.0683
    1DPPC   C2B15226  13.147  20.942   3.840  0.2989  0.0089 -0.0202
    1DPPC   C3B15227  13.080  21.127   4.230 -0.3787 -0.1517  0.1614
    1DPPC   C4B15228  13.315  21.217   4.611 -0.1966  0.1430 -0.1042
    1DPPC   NC315229  19.368  17.572   2.817  0.1518 -0.0427  0.1439
    1DPPC   PO415230  19.719  17.783   3.094  0.4175  0.2439 -0.0929
    1DPPC   GL115231  19.782  17.907   3.514  0.1216 -0.1410 -0.0227
    1DPPC   GL215232  20.101  18.109   3.468  0.1578 -0.2511 -0.0358
    1DPPC   C1A15233  19.731  18.074   3.950  0.2921 -0.1402  0.0023
    1DPPC   C2A15234  19.785  18.016   4.368 -0.0063  0.0288  0.0050
    1DPPC   C3A15235  19.753  18.028   4.797 -0.1334  0.3135  0.0629
    1DPPC   C4A15236  19.665  18.297   5.225  0.2031  0.1719 -0.2628
    1DPPC   C1B15237  20.249  18.148   3.904 -0.0073  0.1784  0.2166
    1DPPC   C2B15238  20.242  18.104   4.372 -0.0688 -0.0116 -0.0568
    1DPPC   C3B15239  20.539  18.389   4.612  0.0026  0.0149  0.0034
    1DPPC   C4B15240  20.711  18.562   5.063 -0.1031 -0.0951 -0.1522
    1DPPC   NC315241  14.888  14.673   2.118 -0.0129 -0.0077 -0.0081
    1DPPC   PO415242  14.524  14.810   2.377 -0.2599 -0.0444  0.2263
    1DPPC   GL115243  14.528  14.703   2.773  0.1111 -0.2944  0.0886
    1DPPC   GL215244  14.624  14.920   2.906  0.0440 -0.1649  0.2717
    1DPPC   C1A15245  14.258  14.580   3.108  0.0883 -0.0126  0.0153
    1DPPC   C2A15246  14.207  14.637   3.458 -0.3419  0.0076  0.3803
    1DPPC   C3A15247  14.205  14.546   3.899  0.0333  0.1792  0.0233
    1DPPC   C4A15248  14.292  14.405   4.354 -0.0555 -0.0384 -0.1125
    1DPPC   C1B15249  14.728  14.699   3.278 -0.1516  0.0158 -0.2227
    1DPPC   C2B15250  14.651  14.695   3.722 -0.0627  0.1394  0.2259
    1DPPC   C3B15251  14.780  14.574   4.205  0.0871  0.1365  0.1856
    1DPPC   C4B15252  14.749  14.732   4.608  0.0180 -0.1065  0.1691
    1DPPC   NC315253  13.014  15.950   2.166 -0.0305  0.0610 -0.1180
    1DPPC   PO415254  13.338  16.025   2.510  0.1002 -0.0238 -0.2227
    1DPPC   GL115255  13.279  16.091   2.975 -0.1788  0.1760  0.1137
    1DPPC   GL215256  12.878  16.108   3.051 -0.0936 -0.0463 -0.0275
    1DPPC   C1A15257  13.441  15.876   3.337 -0.2435 -0.0402  0.0498
    1DPPC   C2A15258  13.613  15.857   3.720 -0.0272  0.2239  0.2091
    1DPPC   C3A15259  13.576  15.811   4.133  0.0070 -0.0520  0.1908
    1DPPC   C4A15260  13.615  15.876   4.577  0.1770  0.3014 -0.3196
    1DPPC   C1B15261  12.652  16.158   3.515 -0.3989 -0.1058 -0.0206
    1DPPC   C2B15262  12.581  16.148   3.879  0.2146 -0.0037 -0.1695
    1DPPC   C3B15263  12.670  16.194   4.179  0.0646  0.2455 -0.0178
    1DPPC   C4B15264  12.708  16.373   4.552  0.2468 -0.1391  0.1462
    1DPPC   NC315265  27.876  10.703   2.826  0.2729 -0.1652 -0.2776
    1DPPC   PO415266  28.267  10.472   3.047  0.2157 -0.1963 -0.0216
    1DPPC   GL115267  28.482  10.787   3.396  0.4480 -0.0211  0.0373
    1DPPC   GL215268  28.263  11.063   3.548 -0.1945 -0.0494  0.1464
    1DPPC   C1A15269  28.609  10.844   3.790  0.1462 -0.0480 -0.2716
    1DPPC   C2A15270  28.731  10.970   4.218  0.2469  0.1190  0.1443
    1DPPC   C3A15271  28.976  10.830   4.488  0.2364  0.0702 -0.0412
    1DPPC   C4A15272  29.096  10.579   4.944  0.0734 -0.0503  0.1441
    1DPPC   C1B15273  28.157  11.102   4.016 -0.1049 -0.1271 -0.0815
    1DPPC   C2B15274  28.316  11.224   4.374  0.1329 -0.4633  0.0221
    1DPPC   C3B15275  28.280  11.403   4.809  0.0592  0.0347 -0.1704
    1DPPC   C4B15276  28.346  11.826   4.911 -0.0965 -0.2742  0.2707
    1DPPC   NC315277  15.831   6.497   3.971 -0.2225 -0.2023 -0.0369
    1DPPC   PO415278  16.164   6.270   3.978  0.0793  0.2029 -0.0707
    1DPPC   GL115279  16.009   6.419   4.416  0.0928  0.0670  0.3251
    1DPPC   GL215280  15.806   6.616   4.428  0.3562 -0.0905  0.1497
    1DPPC   C1A15281  15.912   6.128   4.747  0.0860  0.1261 -0.2450
    1DPPC   C2A15282  15.821   6.039   5.168 -0.0527 -0.3091  0.2583
    1DPPC   C3A15283  15.675   6.070   5.554 -0.0389 -0.0260 -0.3233
    1DPPC   C4A15284  15.524   6.284   5.821 -0.0091 -0.1079 -0.1083
    1DPPC   C1B15285  15.877   6.731   4.824  0.0473  0.0399 -0.0388
    1DPPC   C2B15286  15.823   6.509   5.176  0.1127 -0.2584  0.2546
    1DPPC   C3B15287  15.916   6.564   5.674  0.1819  0.6196  0.0511
    1DPPC   C4B15288  15.975   6.828   6.013 -0.0340 -0.2362  0.2943
    1DPPC   NC315289  12.239  13.983   2.719  0.1765  0.1005 -0.0151
    1DPPC   PO415290  12.465  14.240   2.771  0.1316  0.1379 -0.0657
    1DPPC   GL115291  12.776  14.211   3.141  0.2358 -0.1697  0.1558
    1DPPC   GL215292  12.960  13.912   3.134  0.1619  0.0715 -0.2028
    1DPPC   C1A15293  12.944  14.056   3.601 -0.0313  0.2060  0.1395
    1DPPC   C2A15294  12.989  14.140   4.047  0.0720 -0.1393 -0.0317
    1DPPC   C3A15295  13.148  14.116   4.482  0.0408  0.0876  0.1197
    1DPPC   C4A15296  12.897  14.057   4.815 -0.1931  0.2914  0.0187
    1DPPC   C1B15297  13.081  13.571   3.361  0.0964 -0.1321 -0.0711
    1DPPC   C2B15298  13.016  13.589   3.803 -0.2645  0.1395 -0.0043
    1DPPC   C3B15299  13.064  13.640   4.202 -0.3118  0.2629 -0.0219
    1DPPC   C4B15300  13.089  13.574   4.634 -0.0559  0.0477  0.2914
    1DPPC   NC315301  16.072  16.039   2.578  0.4126  0.0243  0.2572
    1DPPC   PO415302  16.275  15.651   2.362  0.1208 -0.3141  0.2800
    1DPPC   GL115303  16.363  15.368   2.673  0.0472  0.3127  0.1625
    1DPPC   GL215304  16.229  15.666   2.876 -0.0506  0.1582 -0.3496
    1DPPC   C1A15305  16.372  15.218   3.112  0.1900  0.0237 -0.0045
    1DPPC   C2A15306  16.386  15.163   3.545  0.2551  0.2564  0.3493
    1DPPC   C3A15307  16.278  15.055   3.999  0.0012  0.1295 -0.0209
    1DPPC   C4A15308  16.226  15.043   4.372 -0.2482 -0.0508  0.3789
    1DPPC   C1B15309  16.394  15.665   3.425  0.2061 -0.1404  0.3710
    1DPPC   C2B15310  16.304  15.567   3.913  0.1582 -0.1404  0.0671
    1DPPC   C3B15311  16.106  15.702   4.353 -0.3517 -0.0130  0.0229
    1DPPC   C4B15312  16.003  15.842   4.747  0.1826  0.1273 -0.0097
    1DPPC   NC315313  11.369  13.015   2.560 -0.0774  0.2948 -0.2712
    1DPPC   PO415314  11.069  13.392   2.485 -0.2332 -0.3568 -0.0177
    1DPPC   GL115315  11.154  13.361   2.873 -0.1979  0.0849 -0.0824
    1DPPC   GL215316  11.075  13.573   3.039 -0.2121 -0.0137  0.1622
    1DPPC   C1A15317  11.037  13.161   3.319 -0.1309 -0.0892 -0.1704
    1DPPC   C2A15318  10.988  13.261   3.694  0.2089  0.0851  0.3956
    1DPPC   C3A15319  10.940  13.257   4.124  0.1349 -0.2993  0.0156
    1DPPC   C4A15320  10.937  13.311   4.620 -0.0477  0.1464 -0.3804
    1DPPC   C1B15321  11.040  13.707   3.522  0.0942 -0.4565  0.1085
    1DPPC   C2B15322  11.080  13.702   4.012  0.1558  0.3529 -0.0523
    1DPPC   C3B15323  11.217  13.624   4.354 -0.0716 -0.5326 -0.1774
    1DPPC   C4B15324  11.326  13.669   4.750 -0.0322 -0.0861 -0.0027
    1DPPC   NC315325  13.694  20.242   2.605  0.0203 -0.0052 -0.1357
    1DPPC   PO415326  13.579  19.824   2.702  0.0183  0.0716 -0.1738
    1DPPC   GL115327  13.673  20.023   3.068  0.1601  0.1245 -0.1631
    1DPPC   GL215328  13.932  19.952   3.180  0.1151  0.0749 -0.0370
    1DPPC   C1A15329  13.640  20.206   3.449  0.3284 -0.2228  0.2740
    1DPPC   C2A15330  13.634  20.174   3.850 -0.0843 -0.0196 -0.1735
    1DPPC   C3A15331  13.638  20.148   4.278  0.1880  0.1553  0.1031
    1DPPC   C4A15332  13.500  20.115   4.685 -0.1072  0.0574 -0.1624
    1DPPC   C1B15333  14.071  20.002   3.523 -0.0989  0.0074 -0.1103
    1DPPC   C2B15334  14.037  19.850   3.948 -0.1775 -0.0246  0.0062
    1DPPC   C3B15335  13.958  19.653   4.335 -0.0471 -0.1578 -0.2585
    1DPPC   C4B15336  14.058  19.582   4.727 -0.0288 -0.0316  0.0798
    1DPPC   NC315337  13.439  19.276   2.682 -0.1275  0.1707  0.1478
    1DPPC   PO415338  13.830  19.213   2.746  0.1281  0.3356 -0.1407
    1DPPC   GL115339  13.715  18.951   3.045 -0.0868 -0.0525 -0.0941
    1DPPC   GL215340  13.531  19.075   3.200  0.2072  0.2470 -0.2630
    1DPPC   C1A15341  13.877  18.651   3.316  0.0696 -0.1171 -0.1412
    1DPPC   C2A15342  13.858  18.672   3.774  0.0821 -0.0247  0.1004
    1DPPC   C3A15343  13.742  18.665   4.164  0.1055  0.2887 -0.1008
    1DPPC   C4A15344  13.497  18.622   4.529  0.0452  0.3314  0.0502
    1DPPC   C1B15345  13.499  19.027   3.575  0.0653 -0.0671  0.2046
    1DPPC   C2B15346  13.423  19.012   4.025 -0.2325 -0.1485  0.0833
    1DPPC   C3B15347  13.204  19.045   4.473 -0.3731  0.0876 -0.1132
    1DPPC   C4B15348  13.058  18.841   4.798 -0.0382 -0.2884 -0.0448
    1DPPC   NC315349  15.086  21.145   2.769 -0.3298 -0.2702 -0.0079
    1DPPC   PO415350  14.681  21.361   2.732  0.0976  0.0533 -0.4790
    1DPPC   GL115351  14.697  20.984   3.033 -0.0561 -0.2325 -0.0222
    1DPPC   GL215352  15.013  20.976   3.257  0.0219  0.0116  0.0046
    1DPPC   C1A15353  14.543  20.948   3.427 -0.1003  0.0636 -0.0517
    1DPPC   C2A15354  14.497  20.822   3.849  0.3110 -0.2821 -0.1356
    1DPPC   C3A15355  14.287  20.851   4.255  0.1874  0.0557  0.1861
    1DPPC   C4A15356  14.285  20.508   4.668 -0.0419 -0.0722 -0.0626
    1DPPC   C1B15357  15.166  20.630   3.568  0.0564  0.1151 -0.0171
    1DPPC   C2B15358  15.214  20.401   4.005 -0.1434  0.1444 -0.1315
    1DPPC   C3B15359  15.217  20.391   4.479 -0.0799 -0.1260 -0.1774
    1DPPC   C4B15360  15.302  20.344   4.865 -0.0041 -0.2993 -0.1003
    1DPPC   NC315361  19.244  14.959   2.680 -0.1016  0.1768 -0.2558
    1DPPC   PO415362  18.936  14.702   2.519 -0.0309 -0.1994 -0.2433
    1DPPC   GL115363  18.855  14.591   2.949 -0.1463 -0.0424 -0.3391
    1DPPC   GL215364  19.035  14.322   3.050  0.1007  0.0603 -0.1699
    1DPPC   C1A15365  18.611  14.492   3.337 -0.1323  0.2203  0.1282
    1DPPC   C2A15366  18.578  14.453   3.705 -0.0223 -0.2392 -0.0333
    1DPPC   C3A15367  18.701  14.489   4.172 -0.1592  0.0639  0.1389
    1DPPC   C4A15368  18.776  14.664   4.631  0.3447 -0.0365 -0.0941
    1DPPC   C1B15369  18.998  14.236   3.451 -0.1670 -0.0491  0.2981
    1DPPC   C2B15370  18.995  14.176   3.914 -0.0809  0.0252 -0.0331
    1DPPC   C3B15371  19.174  14.246   4.233  0.0125  0.2469 -0.1152
    1DPPC   C4B15372  19.220  14.164   4.546  0.0523  0.1377 -0.2001
    1DPPC   NC315373  10.664  12.457   2.331 -0.0150  0.1102  0.0942
    1DPPC   PO415374  11.121  12.523   2.522  0.2212  0.0135  0.1598
    1DPPC   GL115375  11.209  12.316   2.949 -0.0689 -0.1632 -0.4327
    1DPPC   GL215376  10.950  12.143   3.065  0.2099 -0.2499  0.3194
    1DPPC   C1A15377  11.269  12.338   3.453 -0.0009 -0.3418 -0.1045
    1DPPC   C2A15378  11.313  12.448   3.875 -0.3219 -0.0339 -0.0793
    1DPPC   C3A15379  11.365  12.626   4.240 -0.2477 -0.1554  0.1459
    1DPPC   C4A15380  11.356  12.589   4.633  0.1058 -0.1041 -0.0717
    1DPPC   C1B15381  10.852  12.537   3.260  0.2243 -0.1276  0.1343
    1DPPC   C2B15382  10.936  12.717   3.610  0.4010  0.3013  0.4564
    1DPPC   C3B15383  10.891  12.749   4.048 -0.0089 -0.3819  0.0742
    1DPPC   C4B15384  10.920  12.814   4.443 -0.0043  0.2694 -0.0168
    1DPPC   NC315385  13.617  12.845   2.536 -0.1834 -0.0100  0.0745
    1DPPC   PO415386  13.233  13.002   2.503  0.0635 -0.0621 -0.2920
    1DPPC   GL115387  13.287  12.926   2.925 -0.0874  0.0606  0.1764
    1DPPC   GL215388  13.379  13.140   3.165 -0.0176  0.1194  0.3294
    1DPPC   C1A15389  13.219  12.597   3.210  0.1611  0.0769 -0.4858
    1DPPC   C2A15390  13.324  12.708   3.656 -0.2349 -0.0522  0.3471
    1DPPC   C3A15391  13.274  12.722   4.049 -0.1312 -0.1168  0.0807
    1DPPC   C4A15392  13.414  12.698   4.461 -0.1156 -0.1007 -0.0885
    1DPPC   C1B15393  13.357  13.250   3.610 -0.2229 -0.0226  0.2181
    1DPPC   C2B15394  13.419  13.228   4.149 -0.0420 -0.0309  0.1524
    1DPPC   C3B15395  13.533  13.315   4.475 -0.3475 -0.1861 -0.1083
    1DPPC   C4B15396  13.556  13.723   4.678 -0.2272 -0.0271  0.1843
    1DPPC   NC315397  10.022  11.069   2.950  0.0896 -0.4658  0.0934
    1DPPC   PO415398  10.457  10.811   2.933 -0.1617 -0.0933  0.2505
    1DPPC   GL115399  10.300  10.804   3.332 -0.0564 -0.0065 -0.1861
    1DPPC   GL215400  10.135  11.012   3.451 -0.0074 -0.2378  0.2265
    1DPPC   C1A15401  10.190  10.530   3.728  0.1636 -0.0889 -0.2148
    1DPPC   C2A15402  10.111  10.522   4.136 -0.2045  0.0345  0.0030
    1DPPC   C3A15403   9.923  10.647   4.479 -0.0621 -0.0616 -0.0435
    1DPPC   C4A15404   9.909  10.804   4.902  0.2884  0.3024 -0.0586
    1DPPC   C1B15405  10.095  10.957   3.937  0.1130  0.3320  0.2272
    1DPPC   C2B15406  10.169  11.045   4.358 -0.0260  0.2218  0.0708
    1DPPC   C3B15407  10.189  11.256   4.821 -0.1395  0.0438 -0.0707
    1DPPC   C4B15408  10.274  11.345   5.293 -0.0361 -0.2844 -0.1114
    1DPPC   NC315409  15.602  16.719   2.498 -0.0300  0.0105 -0.0478
    1DPPC   PO415410  15.958  16.504   2.516 -0.2248 -0.4598  0.4964
    1DPPC   GL115411  15.706  16.323   2.784 -0.0334  0.3720  0.1692
    1DPPC   GL215412  15.872  16.429   3.042 -0.0351  0.0580 -0.0979
    1DPPC   C1A15413  15.476  16.163   3.235  0.1222 -0.1048 -0.0298
    1DPPC   C2A15414  15.415  16.087   3.655 -0.1333  0.3187  0.1771
    1DPPC   C3A15415  15.363  16.014   4.041  0.2097  0.0162 -0.0939
    1DPPC   C4A15416  15.087  15.985   4.310  0.0284  0.2748 -0.3270
    1DPPC   C1B15417  15.825  16.441   3.531  0.1453  0.0812 -0.1532
    1DPPC   C2B15418  15.824  16.358   3.978 -0.0220  0.2275 -0.0746
    1DPPC   C3B15419  15.771  16.173   4.310  0.0243 -0.0888 -0.1207
    1DPPC   C4B15420  15.525  16.090   4.649 -0.0445  0.2910 -0.1228
    1DPPC   NC315421  15.464  12.985   2.339  0.0101 -0.0163 -0.1052
    1DPPC   PO415422  15.011  12.917   2.535  0.0364 -0.2692 -0.1624
    1DPPC   GL115423  15.008  12.551   2.828  0.0067 -0.2256 -0.0966
    1DPPC   GL215424  14.776  12.643   3.018  0.1242  0.0765 -0.0213
    1DPPC   C1A15425  15.295  12.323   3.010  0.0592 -0.0249  0.2265
    1DPPC   C2A15426  15.134  12.188   3.421 -0.0724  0.1604  0.0399
    1DPPC   C3A15427  15.097  12.267   3.982 -0.1046 -0.1077 -0.0339
    1DPPC   C4A15428  15.150  12.234   4.461 -0.0288 -0.0158  0.2930
    1DPPC   C1B15429  14.696  12.710   3.410 -0.0191 -0.0327 -0.1351
    1DPPC   C2B15430  14.721  12.711   3.875  0.2937  0.1464 -0.2085
    1DPPC   C3B15431  14.804  12.640   4.299  0.0808 -0.3032 -0.4896
    1DPPC   C4B15432  15.009  12.629   4.756 -0.0821  0.0399 -0.0534
    1DPPC   NC315433  18.143  18.469   2.968 -0.2069  0.0714 -0.1212
    1DPPC   PO415434  17.725  18.377   3.224 -0.2155 -0.0184  0.1926
    1DPPC   GL115435  18.054  18.422   3.607 -0.1202  0.0564 -0.1729
    1DPPC   GL215436  18.403  18.333   3.571  0.2191  0.0027  0.1136
    1DPPC   C1A15437  17.872  18.566   3.930  0.0014 -0.0585 -0.0095
    1DPPC   C2A15438  17.838  18.555   4.300  0.1494  0.0141 -0.1591
    1DPPC   C3A15439  17.834  18.665   4.708 -0.0406  0.0149 -0.0967
    1DPPC   C4A15440  17.925  18.677   5.140  0.2990 -0.0704 -0.2337
    1DPPC   C1B15441  18.363  18.194   3.966  0.1738 -0.0740  0.0225
    1DPPC   C2B15442  18.400  18.200   4.380  0.0174  0.1444  0.2350
    1DPPC   C3B15443  18.229  18.403   4.712  0.0545  0.2596  0.1432
    1DPPC   C4B15444  18.160  18.269   5.064  0.1529 -0.0227  0.0480
    1DPPC   NC315445   9.503  17.111   2.286  0.0107 -0.1484  0.2416
    1DPPC   PO415446   9.798  17.450   2.335 -0.2517 -0.3101  0.0770
    1DPPC   GL115447   9.649  17.438   2.719 -0.0040  0.4286  0.0066
    1DPPC   GL215448   9.379  17.535   2.857 -0.1155  0.0855  0.0829
    1DPPC   C1A15449   9.800  17.493   3.096 -0.2118 -0.0395 -0.0265
    1DPPC   C2A15450   9.751  17.452   3.430  0.0660 -0.3477  0.4002
    1DPPC   C3A15451   9.817  17.402   3.915 -0.0592  0.2525 -0.2800
    1DPPC   C4A15452   9.740  17.157   4.284 -0.0936  0.1647  0.2747
    1DPPC   C1B15453   9.326  17.493   3.256  0.1583  0.0212 -0.1563
    1DPPC   C2B15454   9.085  17.394   3.686  0.0418  0.0932 -0.2112
    1DPPC   C3B15455   8.895  17.431   4.082  0.0074  0.2468  0.0938
    1DPPC   C4B15456   8.700  17.664   4.408  0.0674  0.2317 -0.0263
    1DPPC   NC315457  11.950  18.158   2.035  0.0163  0.1264  0.0434
    1DPPC   PO415458  11.883  18.362   2.476  0.1316  0.0576 -0.0296
    1DPPC   GL115459  11.584  18.378   2.841 -0.0083 -0.3914 -0.1148
    1DPPC   GL215460  11.545  18.619   2.938 -0.1995 -0.0757  0.1610
    1DPPC   C1A15461  11.605  18.204   3.139  0.0843 -0.1042 -0.1198
    1DPPC   C2A15462  11.495  18.152   3.586  0.0420 -0.2110 -0.0783
    1DPPC   C3A15463  11.527  18.038   4.009 -0.0716  0.1931  0.2840
    1DPPC   C4A15464  11.563  18.106   4.385 -0.2759 -0.1870  0.4120
    1DPPC   C1B15465  11.376  18.696   3.381 -0.1909  0.2847 -0.0895
    1DPPC   C2B15466  11.307  18.682   3.766  0.1219 -0.1689 -0.1334
    1DPPC   C3B15467  11.294  18.526   4.212  0.3447  0.1689  0.2589
    1DPPC   C4B15468  10.895  18.497   4.441  0.2001  0.2457  0.2235
    1DPPC   NC315469  10.666  15.253   2.511 -0.1203  0.1713 -0.1553
    1DPPC   PO415470  10.903  15.600   2.614 -0.1327 -0.0444 -0.2290
    1DPPC   GL115471  10.810  15.898   2.945  0.0203  0.0893 -0.1867
    1DPPC   GL215472  11.073  16.037   3.172 -0.0646 -0.1687  0.1093
    1DPPC   C1A15473  10.567  16.241   3.200  0.0543  0.0054  0.0138
    1DPPC   C2A15474  10.437  16.327   3.703  0.0121 -0.0501 -0.0622
    1DPPC   C3A15475  10.416  16.525   4.071  0.0496  0.4217 -0.2481
    1DPPC   C4A15476  10.173  16.861   4.233 -0.0998  0.2464  0.4082
    1DPPC   C1B15477  10.860  16.081   3.676 -0.1421  0.1000 -0.4175
    1DPPC   C2B15478  10.651  16.085   4.117  0.0549  0.0034 -0.0564
    1DPPC   C3B15479  10.373  15.987   4.440 -0.3486  0.1583 -0.4198
    1DPPC   C4B15480  10.180  15.592   4.574 -0.0880 -0.2486 -0.0023
    1DPPC   NC315481  15.678  11.891   2.217 -0.1288  0.0258 -0.0524
    1DPPC   PO415482  15.371  11.963   2.470  0.0392  0.1900  0.0784
    1DPPC   GL115483  15.367  11.777   2.860 -0.0589  0.0711 -0.1087
    1DPPC   GL215484  15.306  11.380   2.849  0.2021 -0.0554  0.2402
    1DPPC   C1A15485  15.487  11.907   3.242  0.1618 -0.1258  0.1830
    1DPPC   C2A15486  15.545  11.930   3.692  0.3099 -0.2327 -0.1871
    1DPPC   C3A15487  15.479  11.947   4.075  0.0712  0.0745  0.1590
    1DPPC   C4A15488  15.682  11.793   4.449  0.0621  0.1389 -0.0416
    1DPPC   C1B15489  15.315  11.316   3.268 -0.3554  0.0725  0.1850
    1DPPC   C2B15490  15.329  11.295   3.652  0.0852  0.3885 -0.0771
    1DPPC   C3B15491  15.445  11.412   4.014 -0.0463 -0.0078  0.2742
    1DPPC   C4B15492  15.512  11.309   4.537  0.1455  0.0189 -0.0227
    1DPPC   NC315493  15.595  13.719   2.487 -0.1718 -0.0076  0.1547
    1DPPC   PO415494  15.299  13.415   2.509  0.1223  0.3335  0.1181
    1DPPC   GL115495  15.192  13.331   2.909  0.1608 -0.1584 -0.1840
    1DPPC   GL215496  14.896  13.195   2.945  0.2245 -0.2020 -0.1278
    1DPPC   C1A15497  15.433  13.350   3.369  0.0926 -0.1214  0.1394
    1DPPC   C2A15498  15.418  13.333   3.828  0.0127  0.1533 -0.0638
    1DPPC   C3A15499  15.297  13.296   4.181  0.0175  0.0566  0.1043
    1DPPC   C4A15500  15.271  13.218   4.661  0.0348  0.0988  0.4360
    1DPPC   C1B15501  14.768  13.213   3.331 -0.0615 -0.0002 -0.0469
    1DPPC   C2B15502  14.796  13.198   3.794 -0.0216  0.0152 -0.0982
    1DPPC   C3B15503  14.798  13.186   4.222  0.1754  0.2146  0.1082
    1DPPC   C4B15504  14.697  12.988   4.663  0.0179  0.2366 -0.2561
    1DPPC   NC315505  16.535  11.770   2.311  0.1018 -0.1077 -0.3043
    1DPPC   PO415506  16.850  11.560   2.631 -0.0983 -0.1572 -0.0293
    1DPPC   GL115507  16.853  11.331   3.081  0.2590  0.0117 -0.1294
    1DPPC   GL215508  16.612  11.193   2.935  0.0939 -0.3771 -0.1499
    1DPPC   C1A15509  16.776  11.070   3.389 -0.1419 -0.0737  0.0929
    1DPPC   C2A15510  16.704  10.967   3.762 -0.1253 -0.2400  0.2901
    1DPPC   C3A15511  16.698  10.897   4.214  0.0448 -0.0169 -0.1675
    1DPPC   C4A15512  16.623  10.616   4.604  0.0752  0.2301  0.3868
    1DPPC   C1B15513  16.268  11.280   3.199  0.2063 -0.0861  0.1759
    1DPPC   C2B15514  16.211  11.242   3.648  0.2509  0.1421  0.1324
    1DPPC   C3B15515  16.303  11.166   4.063 -0.1016  0.1585 -0.0356
    1DPPC   C4B15516  16.173  10.910   4.368 -0.1148 -0.2017 -0.1998
    1DPPC   NC315517  11.873  18.904   2.630 -0.0868  0.0126 -0.1281
    1DPPC   PO415518  12.182  19.211   2.685 -0.3164  0.0987 -0.0562
    1DPPC   GL115519  12.153  19.386   2.948  0.3521  0.0938  0.0248
    1DPPC   GL215520  12.333  19.657   2.913  0.0832 -0.3967 -0.0114
    1DPPC   C1A15521  12.021  19.602   3.288 -0.0655  0.0820 -0.0143
    1DPPC   C2A15522  12.063  19.748   3.632 -0.1074 -0.2633 -0.0430
    1DPPC   C3A15523  12.070  19.759   4.105 -0.0034  0.1591 -0.1478
    1DPPC   C4A15524  11.997  19.734   4.467  0.1347 -0.1656  0.1543
    1DPPC   C1B15525  12.448  19.927   3.255  0.1116 -0.0592  0.2303
    1DPPC   C2B15526  12.273  20.273   3.497 -0.3085  0.2325 -0.1870
    1DPPC   C3B15527  12.043  20.240   3.893 -0.1220 -0.1501 -0.3446
    1DPPC   C4B15528  11.658  20.068   4.074 -0.1255  0.0668  0.1913
    1DPPC   NC315529  18.975  17.111   2.114  0.0428 -0.0982 -0.1495
    1DPPC   PO415530  19.231  17.094   2.431  0.0464 -0.1696  0.2888
    1DPPC   GL115531  19.046  17.129   2.970 -0.1422 -0.1664  0.3309
    1DPPC   GL215532  18.926  17.419   3.174  0.2698 -0.1663 -0.1291
    1DPPC   C1A15533  19.055  16.971   3.339 -0.3915  0.0286 -0.1321
    1DPPC   C2A15534  19.027  16.933   3.747 -0.1535  0.1081  0.2433
    1DPPC   C3A15535  19.035  16.885   4.252  0.0622 -0.1020  0.3540
    1DPPC   C4A15536  19.056  16.790   4.645  0.3026 -0.0626  0.1047
    1DPPC   C1B15537  18.975  17.429   3.590 -0.1590 -0.2761 -0.1823
    1DPPC   C2B15538  18.900  17.638   3.845  0.3960 -0.1613  0.0724
    1DPPC   C3B15539  18.923  17.581   4.273  0.2980 -0.0169 -0.1900
    1DPPC   C4B15540  18.984  17.471   4.696  0.1851 -0.0351 -0.2390
    1DPPC   NC315541  12.749  15.058   2.482 -0.1436  0.0456 -0.0267
    1DPPC   PO415542  12.385  14.971   2.731 -0.1081  0.4107  0.2447
    1DPPC   GL115543  12.321  14.897   3.126 -0.3449  0.0348  0.0891
    1DPPC   GL215544  12.340  14.577   3.184 -0.0307  0.1276  0.1939
    1DPPC   C1A15545  12.430  14.851   3.534  0.3254 -0.0052 -0.3626
    1DPPC   C2A15546  12.481  14.785   3.975  0.2595  0.2177  0.2066
    1DPPC   C3A15547  12.537  14.917   4.329  0.1949  0.0433 -0.0127
    1DPPC   C4A15548  12.535  15.062   4.717  0.1763  0.1504 -0.1819
    1DPPC   C1B15549  12.013  14.492   3.398  0.0775  0.0214  0.0154
    1DPPC   C2B15550  12.021  14.741   3.805 -0.2499  0.0146  0.1159
    1DPPC   C3B15551  11.929  14.762   4.246  0.2340  0.0555  0.1342
    1DPPC   C4B15552  11.904  14.996   4.549  0.1777  0.1732  0.1313
    1DPPC   NC315553  18.912  11.581   2.738  0.2402  0.1471  0.0450
    1DPPC   PO415554  18.633  11.850   2.416  0.2756  0.0222 -0.1336
    1DPPC   GL115555  18.530  11.852   2.870 -0.1061  0.1806  0.1963
    1DPPC   GL215556  18.393  12.235   2.947 -0.0105 -0.0375  0.1716
    1DPPC   C1A15557  18.453  11.591   3.221 -0.0231 -0.3514 -0.0887
    1DPPC   C2A15558  18.541  11.595   3.617  0.2799  0.1714 -0.1889
    1DPPC   C3A15559  18.582  11.648   4.047 -0.1345 -0.2745  0.0931
    1DPPC   C4A15560  18.588  11.599   4.409 -0.0426 -0.0888  0.1970
    1DPPC   C1B15561  18.408  12.127   3.314  0.1519  0.0686 -0.2649
    1DPPC   C2B15562  18.356  12.058   3.737  0.0535 -0.0149  0.1292
    1DPPC   C3B15563  18.196  12.039   4.159  0.1341  0.0474 -0.1248
    1DPPC   C4B15564  18.355  12.019   4.660  0.0088  0.2042 -0.4022
    1DPPC   NC315565  19.618  12.181   2.365 -0.2796  0.1548  0.2159
    1DPPC   PO415566  19.855  11.877   2.522 -0.2110  0.1231  0.3188
    1DPPC   GL115567  19.782  11.874   2.999 -0.2413  0.2460 -0.1168
    1DPPC   GL215568  19.800  12.167   3.157 -0.1305  0.0192 -0.1169
    1DPPC   C1A15569  19.943  11.769   3.410 -0.1889  0.0813  0.2599
    1DPPC   C2A15570  20.346  11.638   3.497 -0.2587 -0.2309  0.3222
    1DPPC   C3A15571  20.450  11.369   3.791  0.0064 -0.0237 -0.1582
    1DPPC   C4A15572  20.417  11.438   4.182 -0.3638  0.0278  0.0213
    1DPPC   C1B15573  19.852  12.172   3.678  0.0126  0.2060 -0.1442
    1DPPC   C2B15574  19.876  12.293   4.117  0.0999  0.1859 -0.0988
    1DPPC   C3B15575  19.947  12.428   4.586 -0.3801  0.1293 -0.0402
    1DPPC   C4B15576  19.984  12.154   4.938  0.0810 -0.1502 -0.2402
    1DPPC   NC315577  10.831  17.411   2.276 -0.0938 -0.1007  0.0005
    1DPPC   PO415578  11.278  17.459   2.425 -0.2869  0.0289 -0.0443
    1DPPC   GL115579  11.515  17.456   2.739  0.2027 -0.0634 -0.0637
    1DPPC   GL215580  11.685  17.699   2.896  0.0265 -0.3460 -0.1794
    1DPPC   C1A15581  11.375  17.348   3.052 -0.0802 -0.1604  0.1701
    1DPPC   C2A15582  11.340  17.386   3.511  0.5028  0.3014  0.0878
    1DPPC   C3A15583  11.376  17.445   3.969  0.2062 -0.1211 -0.1247
    1DPPC   C4A15584  11.263  17.619   4.449  0.1937 -0.2344 -0.0987
    1DPPC   C1B15585  11.705  17.752   3.289  0.2315 -0.1870 -0.3165
    1DPPC   C2B15586  11.705  17.674   3.693  0.0632 -0.1913 -0.2455
    1DPPC   C3B15587  11.819  17.642   4.167 -0.0978 -0.1446  0.2761
    1DPPC   C4B15588  11.821  17.586   4.602 -0.1561  0.0666 -0.0739
    1DPPC   NC315589  28.014  27.992   2.836  0.1200  0.1080  0.0626
    1DPPC   PO415590  28.119  28.021   3.235  0.0170 -0.0363  0.0728
    1DPPC   GL115591  28.272  28.320   3.636  0.3248 -0.1470  0.0897
    1DPPC   GL215592  28.063  28.218   3.823  0.2395  0.0744  0.0017
    1DPPC   C1A15593  28.641  28.296   3.878 -0.0165  0.1461  0.0387
    1DPPC   C2A15594  29.083  28.462   4.095  0.1395  0.2395  0.1191
    1DPPC   C3A15595  29.285  28.495   4.543 -0.2097 -0.0173 -0.3469
    1DPPC   C4A15596  29.264  28.139   4.849 -0.1124 -0.0357  0.1881
    1DPPC   C1B15597  28.168  28.407   4.164 -0.0517 -0.0107  0.3294
    1DPPC   C2B15598  28.412  28.294   4.505 -0.1342 -0.1078 -0.0967
    1DPPC   C3B15599  28.401  27.981   4.929 -0.2757  0.2255  0.1050
    1DPPC   C4B15600  28.170  27.642   5.209  0.1412  0.1829 -0.1063
    1DPPC   NC315601  15.835  14.593   2.442  0.1908 -0.1670 -0.1580
    1DPPC   PO415602  15.889  14.139   2.432  0.2092  0.2504 -0.2552
    1DPPC   GL115603  15.871  14.236   2.848 -0.1395  0.1451  0.0252
    1DPPC   GL215604  15.624  14.454   2.892  0.2702 -0.1351 -0.2141
    1DPPC   C1A15605  16.031  14.071   3.202 -0.1083 -0.2463 -0.0120
    1DPPC   C2A15606  16.010  14.097   3.646 -0.1287 -0.2672 -0.2023
    1DPPC   C3A15607  15.965  14.035   4.057  0.1132 -0.0901 -0.0147
    1DPPC   C4A15608  15.727  14.162   4.497 -0.0873  0.0396  0.2319
    1DPPC   C1B15609  15.624  14.386   3.284 -0.2270 -0.0153 -0.0263
    1DPPC   C2B15610  15.610  14.482   3.677  0.0962  0.0855  0.1710
    1DPPC   C3B15611  15.545  14.365   4.037  0.0621 -0.1945 -0.1711
    1DPPC   C4B15612  15.318  14.582   4.382 -0.2857 -0.1451  0.0758
    1DPPC   NC315613  12.760  13.232   2.390 -0.0766  0.1990 -0.0803
    1DPPC   PO415614  12.431  13.600   2.500  0.1358 -0.2056  0.3489
    1DPPC   GL115615  12.493  13.568   2.987  0.0385  0.1808  0.0424
    1DPPC   GL215616  12.503  13.254   3.265 -0.0710 -0.0389  0.1748
    1DPPC   C1A15617  12.613  13.729   3.439 -0.4915 -0.0325 -0.0027
    1DPPC   C2A15618  12.566  13.770   3.930  0.0847 -0.1186  0.0653
    1DPPC   C3A15619  12.670  13.961   4.354  0.0910  0.1040 -0.1073
    1DPPC   C4A15620  12.418  14.137   4.622  0.0480 -0.0233 -0.1097
    1DPPC   C1B15621  12.399  13.333   3.754  0.1108  0.0026  0.0976
    1DPPC   C2B15622  12.393  13.388   4.205  0.0168  0.1238 -0.1507
    1DPPC   C3B15623  12.648  13.446   4.509 -0.0513  0.0820 -0.1300
    1DPPC   C4B15624  12.606  13.614   4.922 -0.0563  0.5174  0.1656
    1DPPC   NC315625  11.973  16.534   1.894 -0.1248 -0.0959 -0.1808
    1DPPC   PO415626  11.969  16.919   2.120  0.2347  0.0231 -0.0675
    1DPPC   GL115627  12.035  16.987   2.585  0.1083 -0.0111 -0.1029
    1DPPC   GL215628  12.232  17.034   2.753  0.1224 -0.2185  0.0924
    1DPPC   C1A15629  11.745  16.953   2.875 -0.2900  0.0092 -0.2328
    1DPPC   C2A15630  11.582  16.897   3.279  0.0133 -0.0912  0.0888
    1DPPC   C3A15631  11.508  16.921   3.731 -0.0125  0.0624 -0.3509
    1DPPC   C4A15632  11.405  16.736   4.088  0.0722  0.0463  0.2333
    1DPPC   C1B15633  12.465  17.248   3.023 -0.0200  0.2644  0.0999
    1DPPC   C2B15634  12.497  17.174   3.438 -0.0886 -0.0729  0.1871
    1DPPC   C3B15635  12.581  17.104   3.886  0.2670  0.2228 -0.3520
    1DPPC   C4B15636  12.724  17.045   4.303  0.1833 -0.2853 -0.0086
    1DPPC   NC315637  14.759  18.572   2.824  0.0586  0.1094 -0.0550
    1DPPC   PO415638  14.762  18.005   2.659  0.2328  0.3846 -0.0646
    1DPPC   GL115639  14.619  17.801   3.033 -0.0184 -0.1938 -0.0383
    1DPPC   GL215640  14.835  17.703   3.101 -0.5292  0.0971  0.0689
    1DPPC   C1A15641  14.573  17.861   3.524  0.2015  0.0606 -0.0291
    1DPPC   C2A15642  14.449  17.819   3.815  0.0666 -0.1347  0.1018
    1DPPC   C3A15643  14.439  17.723   4.180 -0.0274  0.0542  0.2795
    1DPPC   C4A15644  14.188  17.854   4.559 -0.1248 -0.4226 -0.0499
    1DPPC   C1B15645  14.807  17.454   3.469  0.1243 -0.0491  0.3399
    1DPPC   C2B15646  14.838  17.430   3.907  0.2151  0.0886 -0.0034
    1DPPC   C3B15647  14.717  17.276   4.340 -0.1101  0.0925  0.1413
    1DPPC   C4B15648  14.573  17.138   4.722 -0.0415 -0.3863  0.2372
    1DPPC   NC315649  16.508  10.811   2.632  0.3809  0.4095  0.2174
    1DPPC   PO415650  16.155  10.536   2.485  0.0886 -0.1943 -0.2285
    1DPPC   GL115651  15.997  10.468   2.849 -0.2501  0.1076 -0.1273
    1DPPC   GL215652  15.834  10.624   3.045 -0.1193 -0.0636 -0.0016
    1DPPC   C1A15653  16.092  10.269   3.310  0.0806 -0.2120  0.1613
    1DPPC   C2A15654  16.173  10.092   3.744  0.0175  0.1741 -0.2599
    1DPPC   C3A15655  16.411   9.892   4.091 -0.1489  0.0455  0.0826
    1DPPC   C4A15656  16.664   9.583   4.462  0.2812  0.2783 -0.1462
    1DPPC   C1B15657  15.628  10.637   3.528 -0.1160  0.2333  0.2328
    1DPPC   C2B15658  15.604  10.593   3.960 -0.1747  0.2551 -0.2968
    1DPPC   C3B15659  15.728  10.520   4.300 -0.0867  0.0464  0.0047
    1DPPC   C4B15660  16.099  10.445   4.618 -0.1705  0.3339 -0.2194
    1DPPC   NC315661  13.572   7.609   3.390 -0.0518 -0.0473  0.0845
    1DPPC   PO415662  13.231   7.403   3.315  0.1480 -0.2484 -0.2928
    1DPPC   GL115663  13.103   7.402   3.758  0.0478  0.1450 -0.1252
    1DPPC   GL215664  12.776   7.342   3.908  0.0724 -0.0781 -0.0053
    1DPPC   C1A15665  13.149   7.612   4.144  0.0135  0.2224 -0.2277
    1DPPC   C2A15666  13.265   7.728   4.607 -0.0960 -0.0992  0.2558
    1DPPC   C3A15667  13.193   7.846   4.961 -0.1760 -0.1597  0.0449
    1DPPC   C4A15668  13.444   8.053   5.235  0.2177  0.2993 -0.0620
    1DPPC   C1B15669  12.609   7.270   4.292  0.0255 -0.1571  0.0710
    1DPPC   C2B15670  12.580   7.055   4.683  0.0363  0.1073  0.1945
    1DPPC   C3B15671  12.791   6.990   5.153  0.0765 -0.1443 -0.1263
    1DPPC   C4B15672  12.723   6.949   5.612 -0.3279  0.0481 -0.2061
    1DPPC   NC315673   9.281  11.676   2.602 -0.0407  0.1597 -0.1468
    1DPPC   PO415674   8.994  11.964   2.637 -0.1293 -0.0572  0.0113
    1DPPC   GL115675   9.114  11.931   2.966 -0.2106 -0.1574  0.0299
    1DPPC   GL215676   8.759  12.075   3.112 -0.2201  0.0320 -0.3318
    1DPPC   C1A15677   9.095  11.677   3.326  0.2190 -0.1262  0.0927
    1DPPC   C2A15678   8.938  11.539   3.691 -0.2061 -0.0176 -0.0809
    1DPPC   C3A15679   8.994  11.489   4.146  0.0816  0.1239 -0.0731
    1DPPC   C4A15680   9.324  11.481   4.445 -0.0578  0.0526  0.2052
    1DPPC   C1B15681   8.669  11.969   3.551  0.1814 -0.1666 -0.0875
    1DPPC   C2B15682   8.591  11.801   4.008  0.1928 -0.2232  0.1171
    1DPPC   C3B15683   8.613  11.789   4.497 -0.2517  0.2314  0.1718
    1DPPC   C4B15684   8.629  12.059   4.912 -0.1082 -0.0421 -0.0408
    1DPPC   NC315685   8.608  15.798   2.605 -0.1332  0.3729  0.1650
    1DPPC   PO415686   8.247  15.453   2.506 -0.2389 -0.1880 -0.3819
    1DPPC   GL115687   8.174  15.646   2.940  0.2059  0.0511  0.2530
    1DPPC   GL215688   7.954  15.381   3.074 -0.3019 -0.1772 -0.0188
    1DPPC   C1A15689   8.179  15.833   3.332 -0.0743  0.0716 -0.1110
    1DPPC   C2A15690   8.121  15.826   3.781  0.0821  0.2700  0.4330
    1DPPC   C3A15691   8.279  15.761   4.100 -0.2250 -0.2662 -0.1642
    1DPPC   C4A15692   8.067  15.866   4.384  0.1706  0.0901 -0.0065
    1DPPC   C1B15693   7.887  15.451   3.472  0.1674 -0.0218 -0.1895
    1DPPC   C2B15694   7.661  15.581   3.814 -0.2186 -0.1196  0.3285
    1DPPC   C3B15695   7.771  15.526   4.264  0.0969 -0.1992 -0.3258
    1DPPC   C4B15696   7.564  15.447   4.588 -0.0260 -0.1811 -0.1751
    1DPPC   NC315697  11.314  15.757   2.197  0.1620 -0.0437  0.0039
    1DPPC   PO415698  11.736  15.641   2.313 -0.4077 -0.0794 -0.1071
    1DPPC   GL115699  11.750  15.581   2.763  0.1872 -0.0932  0.0358
    1DPPC   GL215700  11.390  15.648   2.801  0.3347  0.0588 -0.1075
    1DPPC   C1A15701  11.631  15.419   3.176 -0.2574 -0.2464  0.1910
    1DPPC   C2A15702  11.388  15.570   3.512 -0.0630  0.2578 -0.1685
    1DPPC   C3A15703  11.202  15.735   3.888 -0.3132 -0.1363 -0.1068
    1DPPC   C4A15704  11.040  15.579   4.207  0.0594  0.1138  0.2303
    1DPPC   C1B15705  11.519  15.922   3.139 -0.1658  0.2003 -0.1203
    1DPPC   C2B15706  11.432  16.081   3.626  0.2889  0.1163 -0.1107
    1DPPC   C3B15707  11.244  16.154   4.122  0.0272 -0.1285 -0.1032
    1DPPC   C4B15708  11.266  16.117   4.513 -0.1015 -0.2846 -0.2047
    1DPPC   NC315709  17.066  12.814   2.312 -0.1064 -0.2045  0.0302
    1DPPC   PO415710  16.752  12.598   2.581 -0.1540 -0.0442  0.0124
    1DPPC   GL115711  16.940  12.487   2.977 -0.3746  0.0661 -0.1250
    1DPPC   GL215712  17.314  12.446   3.007 -0.1331  0.2419  0.0761
    1DPPC   C1A15713  16.953  12.269   3.262 -0.0441  0.4128  0.3430
    1DPPC   C2A15714  16.916  12.330   3.653 -0.1619 -0.1698  0.0540
    1DPPC   C3A15715  16.905  12.431   4.089 -0.1395  0.1604 -0.3416
    1DPPC   C4A15716  16.979  12.471   4.527 -0.0573 -0.1937 -0.1545
    1DPPC   C1B15717  17.419  12.512   3.388 -0.0724  0.1139 -0.2298
    1DPPC   C2B15718  17.380  12.563   3.849 -0.0054  0.4361  0.0214
    1DPPC   C3B15719  17.550  12.613   4.301  0.1247  0.1783 -0.2492
    1DPPC   C4B15720  17.506  12.394   4.677  0.0076  0.0202  0.1032
    1DPPC   NC315721  16.825  19.635   3.235  0.2671  0.1095  0.0956
    1DPPC   PO415722  17.270  19.456   3.107 -0.0414 -0.1435  0.0946
    1DPPC   GL115723  17.319  19.555   3.552 -0.1787 -0.1899  0.2410
    1DPPC   GL215724  17.471  19.288   3.682  0.0700  0.2618  0.0220
    1DPPC   C1A15725  17.294  19.748   3.892 -0.0840  0.0943 -0.1510
    1DPPC   C2A15726  17.263  19.793   4.389 -0.2250  0.1341  0.1859
    1DPPC   C3A15727  17.165  19.652   4.837 -0.1686  0.2071  0.3207
    1DPPC   C4A15728  17.128  19.618   5.241  0.0080  0.1493 -0.0992
    1DPPC   C1B15729  17.353  19.302   4.087  0.0569  0.4236  0.0904
    1DPPC   C2B15730  17.392  19.283   4.586 -0.0327 -0.1669 -0.1099
    1DPPC   C3B15731  17.364  19.189   4.922 -0.0715  0.0895 -0.2416
    1DPPC   C4B15732  17.313  18.934   5.305 -0.0285 -0.0120  0.1577
    1DPPC   NC315733  14.265  29.119   4.054  0.0490  0.1020  0.0254
    1DPPC   PO415734  14.724  29.132   4.094 -0.3153 -0.1088  0.0592
    1DPPC   GL115735  14.955  29.389   4.366 -0.0180 -0.0788  0.1150
    1DPPC   GL215736  14.908  29.691   4.383 -0.2768  0.1882 -0.0198
    1DPPC   C1A15737  15.347  29.422   4.724 -0.1182  0.2905 -0.0817
    1DPPC   C2A15738  15.529  29.210   5.091 -0.2245  0.1278 -0.0386
    1DPPC   C3A15739  15.438  29.103   5.525 -0.0975 -0.2033  0.0063
    1DPPC   C4A15740  15.102  29.093   5.836 -0.2409 -0.1443  0.2447
    1DPPC   C1B15741  14.893  29.644   4.809  0.0104 -0.1507 -0.2938
    1DPPC   C2B15742  15.185  29.577   5.243 -0.1449 -0.0985 -0.1924
    1DPPC   C3B15743  15.457  29.629   5.644  0.4094  0.0169 -0.0276
    1DPPC   C4B15744  15.725  29.983   5.688 -0.0633  0.1336  0.1451
    1DPPC   NC315745  11.231   8.338   3.384 -0.1047 -0.3172  0.1886
    1DPPC   PO415746  11.191   8.877   3.388 -0.2611 -0.0747 -0.1215
    1DPPC   GL115747  11.069   8.986   3.703 -0.0900 -0.1325  0.0167
    1DPPC   GL215748  11.017   8.693   3.849 -0.0973 -0.0131 -0.2571
    1DPPC   C1A15749  11.014   9.122   4.121  0.1868 -0.0138 -0.1769
    1DPPC   C2A15750  11.132   9.150   4.577  0.2070 -0.0768 -0.0758
    1DPPC   C3A15751  11.237   9.255   4.913  0.2275 -0.0625  0.1459
    1DPPC   C4A15752  11.524   9.728   4.899  0.1720  0.1965 -0.1904
    1DPPC   C1B15753  11.239   8.704   4.286 -0.3714 -0.2065  0.0639
    1DPPC   C2B15754  11.455   8.745   4.712 -0.1278  0.0348  0.1548
    1DPPC   C3B15755  11.675   8.649   5.021 -0.0891  0.1441  0.1952
    1DPPC   C4B15756  11.931   8.519   5.317 -0.2845  0.1090  0.2821
    1DPPC   NC315757  11.435  11.774   2.801 -0.3442  0.2854  0.2138
    1DPPC   PO415758  11.724  12.153   2.855  0.1158 -0.2081  0.3224
    1DPPC   GL115759  11.620  12.010   3.206 -0.1308  0.2673 -0.0195
    1DPPC   GL215760  11.346  11.752   3.351  0.0327 -0.1875 -0.0366
    1DPPC   C1A15761  11.796  12.059   3.538  0.0313  0.0562 -0.2061
    1DPPC   C2A15762  11.833  12.118   3.922 -0.0228  0.0420 -0.1428
    1DPPC   C3A15763  11.833  12.230   4.345  0.0879 -0.1267  0.0976
    1DPPC   C4A15764  12.010  12.398   4.737  0.0743  0.2087 -0.1942
    1DPPC   C1B15765  11.358  11.797   3.687  0.2095 -0.2217 -0.2605
    1DPPC   C2B15766  11.356  11.966   4.113  0.0917  0.0536  0.0421
    1DPPC   C3B15767  11.332  12.077   4.571  0.2709  0.1345  0.2654
    1DPPC   C4B15768  11.201  12.185   4.989  0.2914 -0.1927  0.1765
    1DPPC   NC315769  22.026  11.937   2.352  0.4004  0.1370 -0.0266
    1DPPC   PO415770  22.151  11.804   2.668 -0.1181 -0.0134  0.3164
    1DPPC   GL115771  22.168  11.759   3.106  0.1751 -0.1136 -0.0635
    1DPPC   GL215772  22.448  11.620   3.314  0.0276 -0.0293  0.1159
    1DPPC   C1A15773  22.122  11.783   3.627 -0.1908  0.1038 -0.0258
    1DPPC   C2A15774  22.209  11.806   4.011  0.0756  0.2482  0.1503
    1DPPC   C3A15775  22.458  11.917   4.395  0.1132 -0.0094  0.3736
    1DPPC   C4A15776  22.663  11.803   4.714  0.1722 -0.1404  0.0291
    1DPPC   C1B15777  22.599  11.586   3.763 -0.1309  0.1685 -0.0832
    1DPPC   C2B15778  22.772  11.515   4.109 -0.0652  0.0546 -0.1013
    1DPPC   C3B15779  23.147  11.567   4.436  0.0616  0.1959 -0.3741
    1DPPC   C4B15780  23.481  11.899   4.407 -0.0492  0.4255 -0.2914
    1DPPC   NC315781  23.697  17.569   2.499 -0.0782 -0.2866 -0.1337
    1DPPC   PO415782  23.311  17.874   2.565 -0.2276  0.0455 -0.0178
    1DPPC   GL115783  23.480  17.631   2.977 -0.1352  0.2547 -0.1874
    1DPPC   GL215784  23.821  17.785   2.998  0.4233 -0.0495 -0.0558
    1DPPC   C1A15785  23.713  17.456   3.338 -0.0201  0.0765 -0.1993
    1DPPC   C2A15786  23.814  17.279   3.630  0.0352 -0.0972 -0.2390
    1DPPC   C3A15787  23.849  17.048   4.043 -0.2188 -0.0307  0.2121
    1DPPC   C4A15788  23.602  16.847   4.225 -0.1867  0.1243  0.2457
    1DPPC   C1B15789  23.848  18.155   3.351 -0.1591  0.2688  0.2186
    1DPPC   C2B15790  24.039  18.280   3.740 -0.1753 -0.0366  0.1948
    1DPPC   C3B15791  24.158  18.109   4.056 -0.3056 -0.0564 -0.0221
    1DPPC   C4B15792  24.286  17.976   4.473 -0.1282 -0.1784 -0.0101
    1DPPC   NC315793  11.552  10.923   2.819 -0.0085  0.0988 -0.2786
    1DPPC   PO415794  11.446  11.286   2.884 -0.0588  0.3960 -0.3626
    1DPPC   GL115795  11.350  11.189   3.252 -0.1623 -0.1283  0.0682
    1DPPC   GL215796  11.238  10.810   3.222  0.0253  0.1635 -0.3892
    1DPPC   C1A15797  11.405  11.315   3.668 -0.1785  0.1611 -0.1140
    1DPPC   C2A15798  11.438  11.437   4.089  0.0674  0.0499  0.2149
    1DPPC   C3A15799  11.429  11.526   4.503 -0.0058 -0.0669  0.2002
    1DPPC   C4A15800  11.681  11.410   4.883  0.2238 -0.0206  0.0323
    1DPPC   C1B15801  11.151  10.876   3.646  0.2017  0.1340 -0.1499
    1DPPC   C2B15802  11.182  11.053   4.037  0.1658  0.0186 -0.0802
    1DPPC   C3B15803  11.087  11.103   4.401  0.1023  0.2061 -0.1362
    1DPPC   C4B15804  11.244  11.169   4.818  0.2854 -0.1426  0.4981
    1DPPC   NC315805  20.356  19.094   2.927  0.0553  0.0443 -0.3117
    1DPPC   PO415806  20.404  19.347   3.241 -0.1401  0.1402  0.0535
    1DPPC   GL115807  20.704  19.197   3.503  0.0876 -0.3066 -0.0898
    1DPPC   GL215808  20.907  19.536   3.605 -0.3243  0.0979  0.2604
    1DPPC   C1A15809  20.757  19.079   3.882  0.1081  0.1171 -0.1463
    1DPPC   C2A15810  21.007  19.150   4.325 -0.0283  0.2444  0.3992
    1DPPC   C3A15811  21.184  19.242   4.737  0.1847  0.3051  0.1924
    1DPPC   C4A15812  21.143  19.509   5.056  0.1028  0.1416  0.0438
    1DPPC   C1B15813  21.160  19.535   3.939 -0.1061  0.0967 -0.2135
    1DPPC   C2B15814  21.410  19.553   4.291  0.1311 -0.1105 -0.1213
    1DPPC   C3B15815  21.830  19.610   4.402 -0.1068  0.1212  0.0435
    1DPPC   C4B15816  22.032  20.029   4.500  0.0833  0.0580 -0.1802
    1DPPC   NC315817  17.029  15.960   2.248  0.1642  0.0217 -0.3147
    1DPPC   PO415818  17.138  15.869   2.629  0.4163 -0.1883 -0.0841
    1DPPC   GL115819  17.332  15.785   3.106  0.0295  0.2223 -0.0085
    1DPPC   GL215820  17.287  15.502   3.227 -0.0082  0.2180  0.2028
    1DPPC   C1A15821  17.246  15.987   3.566  0.0727  0.2202  0.0237
    1DPPC   C2A15822  17.102  16.064   3.986  0.0902  0.0828  0.1097
    1DPPC   C3A15823  17.134  16.065   4.510 -0.0107  0.3086 -0.3606
    1DPPC   C4A15824  16.854  16.155   4.754  0.1968 -0.2127 -0.0794
    1DPPC   C1B15825  17.210  15.551   3.734 -0.2349  0.1950 -0.0647
    1DPPC   C2B15826  17.167  15.563   4.130  0.0132 -0.1088 -0.0428
    1DPPC   C3B15827  17.075  15.529   4.565  0.0940 -0.1433  0.3104
    1DPPC   C4B15828  17.221  15.306   4.976  0.3110  0.0485  0.0644
    1DPPC   NC315829  22.246  19.409   2.940 -0.0826 -0.4027  0.0275
    1DPPC   PO415830  22.298  18.933   3.012 -0.1782  0.0303 -0.0538
    1DPPC   GL115831  22.201  18.842   3.383  0.3687  0.3097  0.0486
    1DPPC   GL215832  22.295  19.166   3.643 -0.0524  0.1536  0.0182
    1DPPC   C1A15833  22.219  18.695   3.877 -0.0433 -0.0594 -0.3071
    1DPPC   C2A15834  22.280  18.648   4.291  0.1339 -0.0030 -0.1073
    1DPPC   C3A15835  22.100  18.777   4.702 -0.1131 -0.1404 -0.1057
    1DPPC   C4A15836  22.139  19.020   5.075 -0.4029  0.1528  0.0549
    1DPPC   C1B15837  22.431  19.104   4.064 -0.1800  0.0021  0.0984
    1DPPC   C2B15838  22.815  18.980   4.304  0.0858  0.2391 -0.0026
    1DPPC   C3B15839  23.067  18.767   4.528 -0.3467  0.1864  0.2090
    1DPPC   C4B15840  23.200  18.482   4.886  0.1286  0.0367 -0.4131
    1DPPC   NC315841  11.528  17.173   2.016  0.2933  0.4019 -0.0884
    1DPPC   PO415842  11.112  17.024   2.179 -0.2506 -0.2043 -0.0908
    1DPPC   GL115843  10.999  17.043   2.677 -0.0810  0.1343 -0.1100
    1DPPC   GL215844  10.867  17.302   2.753 -0.3391  0.1219 -0.1753
    1DPPC   C1A15845  11.029  16.920   3.027 -0.1945 -0.1206 -0.3943
    1DPPC   C2A15846  11.038  16.918   3.416  0.0011 -0.1694  0.0027
    1DPPC   C3A15847  11.066  17.056   3.828  0.3012 -0.1741  0.1640
    1DPPC   C4A15848  11.085  17.131   4.217 -0.0084  0.2831  0.1002
    1DPPC   C1B15849  10.754  17.317   3.173  0.0888  0.1120  0.1007
    1DPPC   C2B15850  10.732  17.316   3.591 -0.3199  0.1101 -0.1043
    1DPPC   C3B15851  10.839  17.484   3.995 -0.0957  0.0781  0.0182
    1DPPC   C4B15852  10.716  17.527   4.415 -0.0427  0.0803  0.3486
    1DPPC   NC315853   7.921  10.704   3.277  0.3317  0.2272 -0.0368
    1DPPC   PO415854   8.340  10.711   3.254  0.1926  0.2954 -0.0371
    1DPPC   GL115855   8.457  10.709   3.669  0.1736  0.0228  0.0473
    1DPPC   GL215856   8.097  10.541   3.767  0.0472 -0.0108 -0.1822
    1DPPC   C1A15857   8.481  10.855   4.095  0.1948 -0.0681  0.1127
    1DPPC   C2A15858   8.546  10.765   4.502 -0.0033 -0.0656 -0.6188
    1DPPC   C3A15859   8.373  10.484   4.835  0.2589 -0.0325  0.1662
    1DPPC   C4A15860   7.926  10.431   5.003  0.0613  0.2564 -0.1945
    1DPPC   C1B15861   8.003  10.719   4.096  0.0258  0.1858  0.0924
    1DPPC   C2B15862   8.057  10.885   4.575  0.1091  0.0703  0.1872
    1DPPC   C3B15863   7.991  10.932   5.001  0.0286  0.0769  0.0509
    1DPPC   C4B15864   7.989  10.806   5.446 -0.0580 -0.0936  0.0941
    1DPPC   NC315865  27.980  23.276   2.913  0.0165 -0.0923 -0.0801
    1DPPC   PO415866  27.895  23.154   3.331  0.0594 -0.0555  0.3358
    1DPPC   GL115867  27.590  23.504   3.481  0.2594 -0.1900 -0.0328
    1DPPC   GL215868  27.390  23.293   3.661 -0.2045  0.1201 -0.0558
    1DPPC   C1A15869  27.454  23.783   3.745  0.0799  0.0352  0.0285
    1DPPC   C2A15870  27.491  23.833   4.203  0.1363  0.0808  0.0646
    1DPPC   C3A15871  27.701  23.796   4.633 -0.0760 -0.1998 -0.0569
    1DPPC   C4A15872  27.597  23.922   5.071 -0.0089  0.0500 -0.0928
    1DPPC   C1B15873  27.556  23.361   4.082  0.0932 -0.1229 -0.1964
    1DPPC   C2B15874  27.763  23.129   4.442  0.0021  0.1975 -0.2771
    1DPPC   C3B15875  27.711  22.785   4.724 -0.2792  0.0903  0.1311
    1DPPC   C4B15876  27.940  22.688   5.135 -0.2249  0.0340  0.1460
    1DPPC   NC315877  10.776  10.458   3.209  0.1950  0.1609  0.0547
    1DPPC   PO415878  10.831  10.149   3.345 -0.1700  0.2298  0.3462
    1DPPC   GL115879  10.587  10.054   3.633  0.1299  0.0835 -0.0798
    1DPPC   GL215880  10.421   9.621   3.570  0.0711  0.1019 -0.0040
    1DPPC   C1A15881  10.460  10.100   4.051  0.0296 -0.3376  0.1833
    1DPPC   C2A15882  10.355  10.196   4.531  0.1264 -0.0242 -0.0137
    1DPPC   C3A15883  10.224  10.330   4.992 -0.1575  0.0632  0.0221
    1DPPC   C4A15884  10.341  10.396   5.382 -0.0641 -0.1065 -0.1880
    1DPPC   C1B15885  10.194   9.672   3.918  0.1617  0.1374  0.2311
    1DPPC   C2B15886  10.197   9.712   4.413  0.0047 -0.2426  0.1012
    1DPPC   C3B15887  10.043   9.816   4.855  0.1785  0.1497  0.3536
    1DPPC   C4B15888   9.763   9.803   5.163  0.0242  0.0618 -0.0988
    1DPPC   NC315889  16.039  19.779   2.905 -0.0169 -0.0909  0.0850
    1DPPC   PO415890  16.397  19.438   3.032  0.0529  0.0539  0.1004
    1DPPC   GL115891  16.088  19.290   3.203  0.2773  0.0274 -0.0100
    1DPPC   GL215892  15.820  19.564   3.278  0.0300  0.2255 -0.1377
    1DPPC   C1A15893  15.926  18.926   3.405 -0.1412  0.1574  0.0031
    1DPPC   C2A15894  15.902  18.740   3.773 -0.1464 -0.1080 -0.4114
    1DPPC   C3A15895  15.836  18.689   4.277  0.1709 -0.2007 -0.0936
    1DPPC   C4A15896  15.720  18.546   4.615  0.0202  0.1146  0.0851
    1DPPC   C1B15897  15.878  19.446   3.639  0.0582  0.1249  0.0230
    1DPPC   C2B15898  15.776  19.189   3.992  0.2394  0.1315 -0.0526
    1DPPC   C3B15899  15.844  19.142   4.422 -0.0109  0.0330  0.0617
    1DPPC   C4B15900  15.801  18.991   4.872  0.1618 -0.2189 -0.0199
    1DPPC   NC315901  20.445  16.405   2.183  0.2266 -0.2046  0.2452
    1DPPC   PO415902  20.134  16.551   2.575 -0.1602 -0.3693  0.2627
    1DPPC   GL115903  19.957  16.556   2.894  0.2770 -0.0266  0.0723
    1DPPC   GL215904  19.752  16.635   2.872  0.1196 -0.0402  0.0259
    1DPPC   C1A15905  19.910  16.510   3.329 -0.0307  0.4345  0.1699
    1DPPC   C2A15906  19.843  16.478   3.796  0.1030  0.0973 -0.3671
    1DPPC   C3A15907  19.860  16.440   4.222  0.0059 -0.3091  0.2816
    1DPPC   C4A15908  19.983  16.201   4.643  0.0882  0.1621  0.0980
    1DPPC   C1B15909  19.488  16.820   3.121  0.0547 -0.0606 -0.3178
    1DPPC   C2B15910  19.407  16.681   3.540  0.0176  0.2583  0.0581
    1DPPC   C3B15911  19.392  16.621   4.052  0.0004  0.0509  0.0570
    1DPPC   C4B15912  19.518  16.701   4.513  0.0616  0.1421  0.0415
    1DPPC   NC315913  21.211  17.155   2.135 -0.0076  0.0051 -0.2248
    1DPPC   PO415914  21.516  16.976   2.325  0.0420 -0.0219 -0.0116
    1DPPC   GL115915  21.446  16.748   2.787 -0.0565  0.0937  0.1905
    1DPPC   GL215916  21.816  16.762   2.948  0.0191  0.5176  0.3943
    1DPPC   C1A15917  21.338  16.748   3.235  0.1805  0.0416  0.1808
    1DPPC   C2A15918  21.277  16.714   3.666  0.2306  0.3185 -0.4305
    1DPPC   C3A15919  21.202  16.689   4.111 -0.4213  0.0180  0.0601
    1DPPC   C4A15920  21.236  16.696   4.483  0.2002  0.0823  0.2937
    1DPPC   C1B15921  21.778  16.642   3.320 -0.1820 -0.1924  0.2665
    1DPPC   C2B15922  21.741  16.547   3.817  0.1645  0.0416  0.2609
    1DPPC   C3B15923  21.676  16.514   4.241 -0.3542  0.0484 -0.0982
    1DPPC   C4B15924  21.611  16.447   4.698 -0.0604  0.1042  0.2213
    1DPPC   NC315925  13.978  14.205   2.386 -0.2489 -0.0534  0.0880
    1DPPC   PO415926  13.782  13.796   2.532  0.0266 -0.0868  0.0475
    1DPPC   GL115927  13.935  13.520   2.812  0.0696  0.1087 -0.1155
    1DPPC   GL215928  13.700  13.396   2.907 -0.1121 -0.3087 -0.0637
    1DPPC   C1A15929  14.060  13.707   3.141  0.1770  0.0410  0.0980
    1DPPC   C2A15930  14.089  13.952   3.474 -0.1201 -0.0808  0.1496
    1DPPC   C3A15931  14.072  13.871   3.914 -0.0388 -0.1636 -0.3050
    1DPPC   C4A15932  14.037  13.910   4.439 -0.0130 -0.2467 -0.2438
    1DPPC   C1B15933  13.704  13.435   3.344 -0.0484 -0.0178  0.2237
    1DPPC   C2B15934  13.882  13.454   3.739 -0.1091 -0.1784 -0.1413
    1DPPC   C3B15935  13.939  13.404   4.183  0.2714  0.2347 -0.0818
    1DPPC   C4B15936  13.996  13.477   4.585 -0.1649 -0.0725 -0.0618
    1DPPC   NC315937  21.339  12.895   2.768 -0.1087 -0.0025  0.1025
    1DPPC   PO415938  21.682  12.578   2.813 -0.3506 -0.4565  0.0425
    1DPPC   GL115939  21.699  12.452   3.161  0.1722 -0.1065  0.1500
    1DPPC   GL215940  21.672  12.095   3.134 -0.2970 -0.4455  0.0245
    1DPPC   C1A15941  21.777  12.591   3.559 -0.2137  0.4083 -0.1195
    1DPPC   C2A15942  21.860  12.612   3.986 -0.0365  0.1163  0.1049
    1DPPC   C3A15943  21.916  12.909   4.249 -0.2253 -0.1076  0.0420
    1DPPC   C4A15944  21.960  13.363   4.404 -0.0771  0.0496 -0.0752
    1DPPC   C1B15945  21.689  12.068   3.568  0.0437 -0.3016 -0.1270
    1DPPC   C2B15946  21.677  12.033   3.991 -0.2709  0.0909  0.2274
    1DPPC   C3B15947  21.811  12.308   4.410 -0.0914 -0.0380 -0.0588
    1DPPC   C4B15948  21.800  12.425   4.904 -0.0872 -0.0434 -0.1208
    1DPPC   NC315949  13.065  20.097   2.479  0.2987  0.2711 -0.1236
    1DPPC   PO415950  13.020  20.340   2.790  0.1662  0.2694  0.2877
    1DPPC   GL115951  13.209  20.159   3.093  0.1558  0.0724 -0.1576
    1DPPC   GL215952  13.267  20.460   3.267  0.1610  0.0392  0.1432
    1DPPC   C1A15953  13.220  19.963   3.477 -0.1084 -0.1477 -0.1421
    1DPPC   C2A15954  13.077  19.911   3.832  0.0916 -0.0088  0.0859
    1DPPC   C3A15955  13.151  19.844   4.181  0.0024 -0.0395  0.2003
    1DPPC   C4A15956  13.089  19.947   4.584 -0.2991  0.1563  0.0323
    1DPPC   C1B15957  13.226  20.438   3.633  0.0242 -0.3674 -0.0616
    1DPPC   C2B15958  13.028  20.356   4.015 -0.0174  0.0755 -0.0101
    1DPPC   C3B15959  12.839  20.328   4.425  0.0641  0.1075  0.0269
    1DPPC   C4B15960  12.655  20.256   4.729 -0.2618  0.1867  0.0223
    1DPPC   NC315961  16.473  21.297   2.920  0.1219 -0.0275 -0.2941
    1DPPC   PO415962  16.005  21.187   2.951 -0.2463 -0.0871  0.0394
    1DPPC   GL115963  16.103  20.927   3.237 -0.0282 -0.2358 -0.0854
    1DPPC   GL215964  16.453  20.880   3.254  0.2230  0.0150 -0.0599
    1DPPC   C1A15965  15.995  20.903   3.731 -0.2336 -0.3333 -0.0903
    1DPPC   C2A15966  16.234  20.709   4.032  0.0440 -0.1189  0.1354
    1DPPC   C3A15967  16.266  20.557   4.409 -0.2008  0.0921 -0.2862
    1DPPC   C4A15968  16.220  20.607   4.906 -0.1006  0.1757  0.0723
    1DPPC   C1B15969  16.548  20.907   3.706  0.2176  0.1084  0.2262
    1DPPC   C2B15970  16.503  21.078   4.073 -0.1795  0.0574 -0.3641
    1DPPC   C3B15971  16.259  21.164   4.429  0.3097 -0.0459  0.0329
    1DPPC   C4B15972  15.958  20.935   4.723  0.0474 -0.0192  0.1086
    1DPPC   NC315973  14.104  16.647   2.646  0.1937 -0.0475  0.3563
    1DPPC   PO415974  14.238  16.237   2.713 -0.1623  0.1389 -0.2011
    1DPPC   GL115975  14.354  16.282   3.068 -0.2640  0.1152  0.3991
    1DPPC   GL215976  14.510  15.961   3.122 -0.1276  0.2039 -0.2531
    1DPPC   C1A15977  14.489  16.474   3.431 -0.1410 -0.0605 -0.0860
    1DPPC   C2A15978  14.417  16.449   3.851 -0.0224  0.3635  0.0561
    1DPPC   C3A15979  14.268  16.420   4.260  0.0767  0.0829  0.0414
    1DPPC   C4A15980  14.148  16.191   4.645  0.2612  0.0193 -0.0652
    1DPPC   C1B15981  14.605  15.995   3.533 -0.0977 -0.1479  0.2363
    1DPPC   C2B15982  14.585  15.999   4.061  0.0881 -0.0792  0.1168
    1DPPC   C3B15983  14.537  15.925   4.462 -0.1761  0.3905  0.2125
    1DPPC   C4B15984  14.447  15.771   4.858  0.1426  0.0703 -0.1583
    1DPPC   NC315985  15.364  20.141   2.604  0.0863  0.0123  0.2660
    1DPPC   PO415986  15.503  19.720   2.803  0.0641  0.0239 -0.0142
    1DPPC   GL115987  15.450  19.924   3.222  0.3961  0.0445 -0.0403
    1DPPC   GL215988  15.084  20.129   3.425  0.3633  0.0773 -0.1228
    1DPPC   C1A15989  15.502  20.027   3.685 -0.3406  0.1243  0.0278
    1DPPC   C2A15990  15.444  19.970   4.115  0.1465 -0.1058 -0.0362
    1DPPC   C3A15991  15.553  19.968   4.584  0.3533 -0.2492 -0.0319
    1DPPC   C4A15992  15.490  19.784   4.946 -0.0475  0.0890  0.3716
    1DPPC   C1B15993  14.993  19.970   3.796  0.2036 -0.3101 -0.3644
    1DPPC   C2B15994  14.942  20.035   4.197 -0.0128 -0.0171 -0.1423
    1DPPC   C3B15995  15.025  19.902   4.639  0.3257  0.1568  0.5170
    1DPPC   C4B15996  15.020  19.735   5.000 -0.0060 -0.0043  0.1757
    1DPPC   NC315997  18.521  15.512   2.540 -0.1866  0.1615  0.0960
    1DPPC   PO415998  18.235  15.858   2.686  0.3072 -0.2647  0.1061
    1DPPC   GL115999  18.269  15.576   2.937 -0.0439  0.2088 -0.1157
    1DPPC   GL216000  18.239  15.238   2.927  0.1855  0.0093 -0.0002
    1DPPC   C1A16001  18.250  15.436   3.397 -0.1702 -0.2393  0.1402
    1DPPC   C2A16002  18.266  15.370   3.781 -0.0450 -0.0881  0.0088
    1DPPC   C3A16003  18.147  15.285   4.132  0.1157  0.1260 -0.0606
    1DPPC   C4A16004  18.095  15.332   4.522 -0.0408 -0.2027 -0.1127
    1DPPC   C1B16005  18.441  15.014   3.265  0.1334  0.1367 -0.0868
    1DPPC   C2B16006  18.562  14.947   3.646  0.1099  0.4779  0.1256
    1DPPC   C3B16007  18.437  14.920   4.001 -0.0780 -0.0829 -0.0463
    1DPPC   C4B16008  18.384  14.961   4.568 -0.1132  0.1498 -0.0100
    1DPPC   NC316009  19.855  16.135   2.660  0.0521  0.3677  0.0883
    1DPPC   PO416010  20.187  16.047   2.437  0.2439  0.0537  0.0738
    1DPPC   GL116011  20.311  15.979   2.873 -0.0511  0.2826 -0.0474
    1DPPC   GL216012  20.068  16.102   3.129  0.0412 -0.3166  0.2275
    1DPPC   C1A16013  20.556  16.029   3.346  0.0131  0.1421 -0.1887
    1DPPC   C2A16014  20.647  15.927   3.689 -0.1026  0.0471  0.3092
    1DPPC   C3A16015  20.537  15.962   4.015  0.0572  0.0850 -0.0294
    1DPPC   C4A16016  20.643  15.697   4.388  0.0244 -0.1039  0.0380
    1DPPC   C1B16017  20.043  16.046   3.591 -0.1186  0.0975 -0.2743
    1DPPC   C2B16018  20.065  16.025   3.922 -0.0436 -0.2795  0.1917
    1DPPC   C3B16019  20.067  15.769   4.378  0.1332  0.2742 -0.0389
    1DPPC   C4B16020  20.290  15.661   4.784 -0.1189 -0.0081  0.1983
    1DPPC   NC316021   9.669  17.966   2.321 -0.1661 -0.0100  0.1427
    1DPPC   PO416022   9.440  18.332   2.536  0.2909  0.2585 -0.0251
    1DPPC   GL116023   9.359  18.417   2.901  0.0174 -0.0883  0.0748
    1DPPC   GL216024   9.298  18.723   2.845 -0.0033 -0.2807  0.0295
    1DPPC   C1A16025   9.218  18.332   3.418 -0.2237  0.1978 -0.1471
    1DPPC   C2A16026   9.159  18.243   3.891  0.1768  0.2900 -0.0101
    1DPPC   C3A16027   8.996  18.003   4.242  0.0377  0.2377  0.1532
    1DPPC   C4A16028   8.809  18.056   4.640 -0.0153  0.0123 -0.1660
    1DPPC   C1B16029   9.526  18.908   3.019  0.2645  0.0874  0.0084
    1DPPC   C2B16030   9.646  19.168   3.383 -0.1072  0.1346  0.1120
    1DPPC   C3B16031   9.773  19.423   3.759 -0.0793 -0.0476  0.1216
    1DPPC   C4B16032  10.116  19.520   3.952  0.1991 -0.0542 -0.1230
    1DPPC   NC316033  15.083   6.453   3.797 -0.0872  0.1344 -0.4694
    1DPPC   PO416034  15.431   6.701   3.781  0.1206 -0.0165  0.0363
    1DPPC   GL116035  15.617   6.971   4.046 -0.1565 -0.0510 -0.2052
    1DPPC   GL216036  15.917   7.080   3.914  0.2720  0.1995  0.2649
    1DPPC   C1A16037  15.641   7.104   4.445  0.0686  0.1631  0.2995
    1DPPC   C2A16038  15.656   7.170   4.789 -0.2884 -0.2840  0.1560
    1DPPC   C3A16039  15.676   7.061   5.210  0.1878 -0.1391  0.2641
    1DPPC   C4A16040  16.052   6.966   5.432  0.0501 -0.3471 -0.1467
    1DPPC   C1B16041  16.181   7.282   4.252  0.0081 -0.1310 -0.1667
    1DPPC   C2B16042  16.326   7.620   4.512 -0.1731  0.4411  0.0171
    1DPPC   C3B16043  16.486   7.693   4.910  0.1033 -0.3127  0.0642
    1DPPC   C4B16044  16.823   7.506   5.113  0.2525 -0.0876 -0.2127
    1DPPC   NC316045  22.903  13.323   2.714  0.1810 -0.0847 -0.0082
    1DPPC   PO416046  22.564  13.047   2.810  0.3784 -0.3457  0.1122
    1DPPC   GL116047  22.827  12.892   3.027  0.5943  0.1031 -0.4867
    1DPPC   GL216048  22.753  12.588   2.998 -0.1259 -0.0441  0.1914
    1DPPC   C1A16049  22.889  12.914   3.395  0.1888 -0.3258  0.0182
    1DPPC   C2A16050  23.029  12.868   3.827  0.1535 -0.0099  0.1169
    1DPPC   C3A16051  23.223  12.688   4.149  0.0904  0.2625 -0.0115
    1DPPC   C4A16052  23.238  12.405   4.525 -0.3208 -0.4549 -0.2151
    1DPPC   C1B16053  22.953  12.399   3.350  0.0874  0.1987  0.1215
    1DPPC   C2B16054  23.017  12.361   3.773 -0.1318  0.0171  0.2187
    1DPPC   C3B16055  23.333  12.226   4.010  0.2408  0.1438  0.2782
    1DPPC   C4B16056  23.666  12.407   4.272  0.1763 -0.2801 -0.0728
    1DPPC   NC316057  12.162   8.314   2.802  0.0647 -0.0777 -0.2906
    1DPPC   PO416058  12.332   8.344   3.282 -0.1234  0.0679  0.2975
    1DPPC   GL116059  12.389   8.442   3.704  0.1485 -0.0192 -0.1773
    1DPPC   GL216060  12.360   8.227   3.833  0.2088 -0.4018 -0.2856
    1DPPC   C1A16061  12.531   8.740   3.965  0.1264 -0.0964 -0.1156
    1DPPC   C2A16062  12.568   8.818   4.378 -0.1400 -0.1816  0.0205
    1DPPC   C3A16063  12.531   8.686   4.874  0.0536 -0.1172  0.1328
    1DPPC   C4A16064  12.417   8.567   5.228  0.2519  0.0215  0.1233
    1DPPC   C1B16065  12.218   8.079   4.190  0.1601 -0.1674  0.1416
    1DPPC   C2B16066  12.157   7.921   4.558 -0.0620 -0.1335  0.3192
    1DPPC   C3B16067  11.982   7.698   4.723 -0.3184 -0.1977  0.1439
    1DPPC   C4B16068  12.206   7.338   4.906  0.0677 -0.1140  0.2505
    1DPPC   NC316069  19.935  19.032   3.357 -0.0837 -0.2224  0.2716
    1DPPC   PO416070  19.559  18.752   3.278 -0.0805 -0.0350  0.0335
    1DPPC   GL116071  19.540  18.939   3.606  0.3932  0.2883  0.0890
    1DPPC   GL216072  19.779  19.074   3.826  0.1730 -0.2015 -0.1981
    1DPPC   C1A16073  19.337  18.873   3.974  0.2723 -0.1415  0.2566
    1DPPC   C2A16074  19.139  18.851   4.286 -0.0720 -0.2268 -0.2223
    1DPPC   C3A16075  19.184  18.957   4.656 -0.1102  0.1434  0.2824
    1DPPC   C4A16076  19.042  18.909   5.050 -0.2241 -0.1844  0.2180
    1DPPC   C1B16077  19.713  19.002   4.284  0.1176  0.0824  0.1555
    1DPPC   C2B16078  19.720  18.941   4.735 -0.0786  0.2246  0.0520
    1DPPC   C3B16079  19.827  18.830   5.199  0.1894 -0.3023 -0.0246
    1DPPC   C4B16080  19.824  18.912   5.699  0.0887  0.0286 -0.2998
    1DPPC   NC316081  24.086  23.280   3.257 -0.0754  0.0736 -0.0807
    1DPPC   PO416082  23.850  23.618   3.221  0.1299  0.1093 -0.0657
    1DPPC   GL116083  23.983  23.536   3.695 -0.0412 -0.2950  0.0502
    1DPPC   GL216084  24.080  23.340   3.785 -0.1510 -0.0973  0.2022
    1DPPC   C1A16085  23.926  23.690   4.092 -0.0749  0.0636 -0.0716
    1DPPC   C2A16086  23.745  23.925   4.362  0.1958 -0.1698 -0.0776
    1DPPC   C3A16087  23.658  23.758   4.788 -0.0319 -0.0150  0.2049
    1DPPC   C4A16088  23.582  23.409   5.031 -0.1602 -0.0940  0.2765
    1DPPC   C1B16089  24.198  23.328   4.222  0.1340  0.1769  0.1344
    1DPPC   C2B16090  24.156  23.563   4.565  0.1121  0.0632 -0.0122
    1DPPC   C3B16091  24.409  23.682   4.919  0.5413  0.0287  0.1565
    1DPPC   C4B16092  24.639  23.624   5.298 -0.1950 -0.0053  0.3313
    1DPPC   NC316093   6.777  15.945   2.402 -0.1183  0.0228  0.1378
    1DPPC   PO416094   6.636  16.347   2.407 -0.0882  0.2512  0.1206
    1DPPC   GL116095   6.506  16.494   2.735  0.0369  0.0329 -0.1630
    1DPPC   GL216096   6.397  16.329   3.052 -0.0369  0.2585  0.0186
    1DPPC   C1A16097   6.401  16.808   3.077 -0.1079 -0.1380  0.1284
    1DPPC   C2A16098   6.528  16.763   3.487  0.3426 -0.1061  0.0427
    1DPPC   C3A16099   6.757  16.575   3.885  0.1598  0.1595 -0.0163
    1DPPC   C4A16100   6.638  16.272   4.204 -0.0397  0.2438  0.0343
    1DPPC   C1B16101   6.321  16.100   3.440  0.0351  0.0032 -0.0574
    1DPPC   C2B16102   6.286  15.690   3.705  0.0517  0.2051 -0.1608
    1DPPC   C3B16103   6.289  15.740   4.274  0.1582  0.0621 -0.2319
    1DPPC   C4B16104   6.239  15.632   4.701 -0.1972 -0.0260  0.2386
    1DPPC   NC316105  21.255  18.077   3.004 -0.0279  0.0062  0.2738
    1DPPC   PO416106  20.969  18.457   2.997  0.4302  0.0138  0.0339
    1DPPC   GL116107  20.971  18.449   3.337  0.1574 -0.3644 -0.0191
    1DPPC   GL216108  21.141  18.291   3.444  0.0796 -0.0540  0.1024
    1DPPC   C1A16109  20.884  18.613   3.763  0.3208 -0.0456  0.2090
    1DPPC   C2A16110  20.927  18.619   4.139 -0.0033 -0.1584 -0.1959
    1DPPC   C3A16111  21.015  18.580   4.631  0.3986 -0.2559  0.2493
    1DPPC   C4A16112  21.060  18.240   4.955 -0.1668  0.2273 -0.1621
    1DPPC   C1B16113  21.274  18.329   3.834  0.0983 -0.2748 -0.4766
    1DPPC   C2B16114  21.360  18.327   4.211 -0.0257 -0.1058 -0.0592
    1DPPC   C3B16115  21.396  18.186   4.554 -0.1397 -0.3223 -0.1606
    1DPPC   C4B16116  21.581  18.246   4.963  0.1578  0.2737 -0.3369
    1DPPC   NC316117  19.292   8.908   3.034 -0.0610  0.0396 -0.4045
    1DPPC   PO416118  18.918   8.637   2.921 -0.2790  0.0941  0.2673
    1DPPC   GL116119  18.859   8.974   3.215 -0.0744  0.0519  0.1096
    1DPPC   GL216120  18.831   9.285   3.113  0.2405  0.1545  0.0484
    1DPPC   C1A16121  19.089   9.107   3.624 -0.1739 -0.0993  0.1972
    1DPPC   C2A16122  19.083   9.404   3.889  0.0755  0.1739  0.1427
    1DPPC   C3A16123  19.091   9.775   4.168 -0.0212 -0.0905  0.0369
    1DPPC   C4A16124  19.275  10.110   4.306  0.5490 -0.2936 -0.2046
    1DPPC   C1B16125  18.985   9.600   3.435 -0.2043 -0.1054  0.0040
    1DPPC   C2B16126  19.028   9.897   3.600 -0.0415  0.0929  0.0578
    1DPPC   C3B16127  19.349  10.139   3.794 -0.0636 -0.0131  0.3485
    1DPPC   C4B16128  19.303  10.614   4.028  0.0962  0.1840 -0.1786
    1DPPC   NC316129  17.031  17.186   2.845 -0.2313 -0.1951 -0.1046
    1DPPC   PO416130  17.518  17.173   2.896  0.1120  0.2036 -0.0911
    1DPPC   GL116131  17.676  17.187   3.301 -0.1269 -0.4141 -0.0917
    1DPPC   GL216132  17.591  16.999   3.507  0.1070 -0.0567  0.0894
    1DPPC   C1A16133  18.059  17.078   3.389  0.1414 -0.4347  0.0418
    1DPPC   C2A16134  18.175  16.996   3.847 -0.3268 -0.1257 -0.1995
    1DPPC   C3A16135  18.211  16.977   4.253 -0.0144  0.3247  0.1845
    1DPPC   C4A16136  18.076  16.721   4.552 -0.0280  0.1044  0.0920
    1DPPC   C1B16137  17.647  16.964   3.986  0.1026  0.0092 -0.0505
    1DPPC   C2B16138  17.563  16.966   4.489 -0.1883  0.1346 -0.0132
    1DPPC   C3B16139  17.723  17.048   4.835 -0.1263  0.0697  0.3237
    1DPPC   C4B16140  17.770  16.964   5.280  0.2571 -0.2506 -0.0394
    1DPPC   NC316141  20.600  10.182   2.813  0.0241  0.1695  0.1353
    1DPPC   PO416142  20.968  10.437   3.097  0.0438 -0.1135 -0.1747
    1DPPC   GL116143  20.829  10.151   3.491 -0.1994  0.0194  0.1194
    1DPPC   GL216144  21.088  10.096   3.484  0.1990  0.0391  0.1344
    1DPPC   C1A16145  20.844  10.226   3.934  0.0414  0.1195 -0.1498
    1DPPC   C2A16146  20.786  10.413   4.284  0.1258 -0.0348  0.2172
    1DPPC   C3A16147  20.704  10.532   4.679  0.1690 -0.0236  0.0502
    1DPPC   C4A16148  20.731  10.830   4.941  0.0558  0.1773  0.0670
    1DPPC   C1B16149  21.310  10.409   3.718  0.0153 -0.0238 -0.0321
    1DPPC   C2B16150  21.228  10.563   4.056  0.2831  0.2718  0.1094
    1DPPC   C3B16151  21.357  10.536   4.450 -0.2462  0.2303 -0.1077
    1DPPC   C4B16152  21.223  10.526   4.826 -0.2352  0.2169  0.4681
    1DPPC   NC316153  13.002  16.474   2.651  0.0888 -0.0223  0.0696
    1DPPC   PO416154  12.762  16.360   2.376  0.1447  0.2890 -0.2328
    1DPPC   GL116155  12.548  16.392   2.845 -0.1931 -0.0275 -0.0973
    1DPPC   GL216156  12.612  16.658   2.964  0.1145  0.0238  0.2962
    1DPPC   C1A16157  12.347  16.167   3.060 -0.0539  0.2671 -0.0145
    1DPPC   C2A16158  12.162  16.229   3.536 -0.0368  0.1822 -0.0448
    1DPPC   C3A16159  12.157  16.310   4.041  0.0891  0.1894  0.0327
    1DPPC   C4A16160  12.125  16.386   4.528 -0.0015 -0.0893 -0.1230
    1DPPC   C1B16161  12.567  16.658   3.445 -0.0460 -0.2310  0.0148
    1DPPC   C2B16162  12.570  16.652   3.887 -0.2957  0.0833 -0.1672
    1DPPC   C3B16163  12.473  16.628   4.223  0.2446  0.1930  0.0333
    1DPPC   C4B16164  12.456  16.753   4.575  0.2712 -0.1687 -0.0529
    1DPPC   NC316165  10.656   0.557   3.802  0.0844  0.1090 -0.2168
    1DPPC   PO416166  10.608   0.966   3.962  0.2176  0.0031 -0.3227
    1DPPC   GL116167  10.601   1.313   4.218 -0.0081 -0.1888 -0.0621
    1DPPC   GL216168  10.616   1.538   4.050 -0.0050  0.4011  0.2626
    1DPPC   C1A16169  10.460   1.223   4.661  0.5266 -0.0643  0.1473
    1DPPC   C2A16170  10.198   1.077   5.150  0.1375 -0.1315  0.1908
    1DPPC   C3A16171  10.356   0.765   5.446  0.1566 -0.2109  0.1284
    1DPPC   C4A16172  10.583   0.326   5.355  0.0319  0.0094  0.0023
    1DPPC   C1B16173  10.539   1.728   4.513 -0.1589  0.0540 -0.0299
    1DPPC   C2B16174  10.273   1.742   4.777  0.1528  0.3295 -0.1692
    1DPPC   C3B16175  10.147   2.078   5.089  0.2377  0.1804 -0.2250
    1DPPC   C4B16176   9.767   2.018   5.336 -0.0366 -0.3256  0.3549
    1DPPC   NC316177  22.130  16.340   2.104 -0.1956  0.0694  0.1307
    1DPPC   PO416178  21.710  16.090   2.240 -0.1670 -0.1897 -0.1641
    1DPPC   GL116179  21.759  15.961   2.734 -0.5609 -0.2019  0.0708
    1DPPC   GL216180  21.661  16.211   2.993  0.0692 -0.1975  0.0422
    1DPPC   C1A16181  22.129  15.936   3.050  0.0141 -0.3114  0.2086
    1DPPC   C2A16182  22.324  15.805   3.332 -0.0259 -0.2576 -0.2036
    1DPPC   C3A16183  22.719  15.814   3.655  0.2055  0.0619 -0.1043
    1DPPC   C4A16184  22.900  15.560   4.056 -0.0842  0.0182  0.0030
    1DPPC   C1B16185  21.416  16.223   3.313  0.2731 -0.0526 -0.1422
    1DPPC   C2B16186  21.394  16.198   3.769 -0.0804 -0.2914  0.0438
    1DPPC   C3B16187  21.373  16.113   4.142  0.1045 -0.0112 -0.0977
    1DPPC   C4B16188  21.411  15.902   4.524  0.0177 -0.0628  0.2195
    1DPPC   NC316189  14.859  19.337   2.388  0.1227 -0.1479 -0.1620
    1DPPC   PO416190  14.624  19.181   2.682  0.0232  0.0083  0.0263
    1DPPC   GL116191  14.262  19.276   2.925  0.2124  0.4523 -0.3618
    1DPPC   GL216192  14.225  19.526   3.194 -0.0708  0.0225  0.1237
    1DPPC   C1A16193  14.108  19.094   3.334 -0.2100 -0.0176  0.4857
    1DPPC   C2A16194  14.015  19.127   3.667 -0.2347 -0.1134  0.1521
    1DPPC   C3A16195  13.920  19.091   4.099  0.1402  0.0483  0.1500
    1DPPC   C4A16196  13.753  19.141   4.491  0.2713 -0.2634  0.0166
    1DPPC   C1B16197  14.260  19.517   3.603  0.0663 -0.2026 -0.2813
    1DPPC   C2B16198  14.293  19.431   4.036 -0.3126  0.2993  0.0299
    1DPPC   C3B16199  14.404  19.307   4.492 -0.3169  0.0881 -0.1092
    1DPPC   C4B16200  14.278  19.137   4.761 -0.1513  0.2036 -0.2062
    1DPPC   NC316201   9.159  27.829   3.858  0.0753 -0.2267 -0.0068
    1DPPC   PO416202   9.628  27.905   3.961  0.1326 -0.2214  0.0540
    1DPPC   GL116203   9.801  27.903   4.337 -0.1014  0.0140  0.0561
    1DPPC   GL216204  10.054  28.100   4.419 -0.1856  0.0791 -0.0471
    1DPPC   C1A16205   9.845  27.735   4.763  0.0628  0.0161  0.4067
    1DPPC   C2A16206   9.846  27.830   5.188  0.0923 -0.1451  0.0936
    1DPPC   C3A16207   9.659  27.766   5.649 -0.1409 -0.1058 -0.0234
    1DPPC   C4A16208   9.582  28.092   5.844  0.2079  0.3740 -0.2165
    1DPPC   C1B16209  10.038  28.253   4.842  0.5436 -0.2417 -0.2196
    1DPPC   C2B16210   9.891  28.450   5.227 -0.0982 -0.0344 -0.1802
    1DPPC   C3B16211   9.790  28.634   5.595 -0.0541 -0.1093  0.5179
    1DPPC   C4B16212   9.429  28.702   5.912 -0.2433 -0.1351  0.1572
    1DPPC   NC316213  28.463  21.831   2.675 -0.2441  0.0319 -0.3302
    1DPPC   PO416214  28.857  22.199   2.692  0.1373 -0.2114 -0.0433
    1DPPC   GL116215  28.952  22.253   3.148 -0.0172 -0.0484  0.0410
    1DPPC   GL216216  29.241  22.415   3.337  0.3336  0.3385 -0.5623
    1DPPC   C1A16217  28.957  22.091   3.556  0.0625  0.1238  0.3965
    1DPPC   C2A16218  29.157  22.107   3.912  0.0394 -0.0658 -0.1862
    1DPPC   C3A16219  29.243  21.736   4.208 -0.1816 -0.1147 -0.1776
    1DPPC   C4A16220  29.595  21.402   4.265  0.3350  0.2340 -0.2950
    1DPPC   C1B16221  29.466  22.420   3.628  0.0823 -0.0031 -0.0382
    1DPPC   C2B16222  29.581  22.672   3.978  0.1217  0.2964 -0.0187
    1DPPC   C3B16223  29.613  23.003   4.284  0.1337  0.1196 -0.1713
    1DPPC   C4B16224  29.895  23.260   4.502  0.1465  0.3233  0.2185
    1DPPC   NC316225  12.170  15.750   2.498 -0.1355  0.2489 -0.2308
    1DPPC   PO416226  12.462  15.469   2.470  0.2649 -0.0936  0.1935
    1DPPC   GL116227  12.291  15.440   2.951  0.2324  0.0731  0.1743
    1DPPC   GL216228  12.057  15.240   2.950 -0.1796  0.0291 -0.1396
    1DPPC   C1A16229  12.573  15.651   3.234  0.3412  0.3043 -0.3915
    1DPPC   C2A16230  12.434  15.724   3.596  0.1532  0.0103  0.2270
    1DPPC   C3A16231  12.379  15.705   4.028 -0.0976 -0.1007  0.1371
    1DPPC   C4A16232  12.431  15.865   4.500 -0.2673  0.0191 -0.1010
    1DPPC   C1B16233  12.196  15.308   3.385 -0.0288  0.0557 -0.2358
    1DPPC   C2B16234  12.228  15.238   3.873 -0.0484  0.1048  0.0695
    1DPPC   C3B16235  12.103  15.341   4.257 -0.0239 -0.0609 -0.0853
    1DPPC   C4B16236  11.961  15.527   4.628  0.1625  0.3241  0.0869
    1DPPC   NC316237  13.315  16.449   2.263 -0.0009 -0.1451  0.0843
    1DPPC   PO416238  13.224  16.834   2.305 -0.2068  0.0030  0.0404
    1DPPC   GL116239  13.077  16.941   2.703  0.3359  0.0240  0.0610
    1DPPC   GL216240  12.847  17.172   2.690  0.2542  0.1171  0.1275
    1DPPC   C1A16241  13.278  17.248   3.011 -0.0679 -0.1197 -0.2261
    1DPPC   C2A16242  13.295  17.257   3.405  0.2255  0.1935 -0.0498
    1DPPC   C3A16243  13.307  17.211   3.909 -0.1627 -0.1391 -0.4121
    1DPPC   C4A16244  13.190  17.141   4.284 -0.0084  0.2385  0.1954
    1DPPC   C1B16245  12.912  17.017   3.206 -0.0663  0.1179 -0.2159
    1DPPC   C2B16246  12.998  16.917   3.745  0.3345  0.0805  0.0437
    1DPPC   C3B16247  12.993  16.654   4.166 -0.2213  0.0053  0.0312
    1DPPC   C4B16248  13.017  16.773   4.609  0.0619 -0.3134  0.0474
    1DPPC   NC316249  11.035  14.447   2.098 -0.2046  0.2358  0.0747
    1DPPC   PO416250  10.618  14.599   2.390 -0.2405 -0.1863 -0.6327
    1DPPC   GL116251  10.684  14.729   2.796 -0.0617  0.0489 -0.3312
    1DPPC   GL216252  10.873  14.489   3.019  0.0027  0.2531 -0.0301
    1DPPC   C1A16253  10.691  14.854   3.348  0.3245 -0.0357  0.0089
    1DPPC   C2A16254  10.594  14.918   3.761  0.3002  0.1872 -0.1694
    1DPPC   C3A16255  10.543  14.993   4.112  0.0069 -0.3114 -0.1534
    1DPPC   C4A16256  10.542  14.718   4.444 -0.2918 -0.0794 -0.1701
    1DPPC   C1B16257  11.027  14.525   3.337 -0.4771 -0.1981  0.0083
    1DPPC   C2B16258  10.990  14.546   3.650  0.2111 -0.1248  0.0411
    1DPPC   C3B16259  10.905  14.638   4.116  0.0334  0.1281 -0.0146
    1DPPC   C4B16260  11.035  14.470   4.543 -0.1647  0.0984  0.1378
    1DPPC   NC316261  17.454  18.982   3.112 -0.1961  0.0315  0.3523
    1DPPC   PO416262  17.931  18.843   3.156  0.1846  0.0429 -0.1574
    1DPPC   GL116263  17.832  18.982   3.534  0.1471  0.2546  0.2140
    1DPPC   GL216264  18.092  19.265   3.590  0.1051  0.0794 -0.0054
    1DPPC   C1A16265  17.839  19.052   4.005 -0.4390  0.2291  0.1774
    1DPPC   C2A16266  17.845  19.097   4.375  0.1869 -0.2740 -0.0725
    1DPPC   C3A16267  17.880  19.177   4.831  0.2201  0.0216 -0.1730
    1DPPC   C4A16268  17.929  19.198   5.245  0.1446  0.1211 -0.1782
    1DPPC   C1B16269  18.268  19.336   4.010 -0.0954 -0.0634 -0.0025
    1DPPC   C2B16270  18.259  19.409   4.444  0.4692 -0.1414 -0.0681
    1DPPC   C3B16271  18.256  19.516   4.941 -0.0623  0.2873 -0.0106
    1DPPC   C4B16272  18.568  19.759   5.224  0.2936  0.1186  0.2427
    1DPPC   NC316273  11.806   9.650   2.688  0.0323  0.1208 -0.0804
    1DPPC   PO416274  11.664   9.563   3.219 -0.0087  0.0663  0.1965
    1DPPC   GL116275  11.954   9.551   3.633  0.0441 -0.0410 -0.0502
    1DPPC   GL216276  12.082   9.241   3.566  0.0380  0.3468  0.0653
    1DPPC   C1A16277  11.871   9.425   4.084 -0.1036  0.0934  0.0204
    1DPPC   C2A16278  11.858   9.571   4.498 -0.0744  0.2409 -0.1333
    1DPPC   C3A16279  12.019   9.583   4.928 -0.0271  0.1101 -0.0387
    1DPPC   C4A16280  12.306   9.355   5.246 -0.0045  0.0628  0.2384
    1DPPC   C1B16281  12.248   9.156   3.983 -0.0248  0.0955 -0.0092
    1DPPC   C2B16282  12.185   9.168   4.409  0.1683  0.2027 -0.0773
    1DPPC   C3B16283  12.223   9.193   4.744  0.0026  0.1163  0.1683
    1DPPC   C4B16284  12.092   8.898   5.029  0.1105 -0.0564 -0.1122
    1DPPC   NC316285   9.975   9.610   2.779 -0.2526 -0.0684  0.0623
    1DPPC   PO416286  10.072  10.061   2.845 -0.0926  0.1975 -0.3339
    1DPPC   GL116287   9.968   9.903   3.243 -0.0104  0.0536  0.0334
    1DPPC   GL216288  10.103  10.061   3.524  0.2664 -0.1060  0.1151
    1DPPC   C1A16289   9.736   9.697   3.678  0.0301  0.3364  0.1885
    1DPPC   C2A16290   9.724   9.663   4.102 -0.1933 -0.1806  0.2435
    1DPPC   C3A16291   9.626   9.720   4.513  0.1462  0.2820 -0.2021
    1DPPC   C4A16292   9.385   9.561   4.833  0.1773 -0.0055  0.0812
    1DPPC   C1B16293   9.903  10.138   3.884 -0.0991  0.1783 -0.0068
    1DPPC   C2B16294   9.792  10.161   4.356 -0.0186 -0.0586 -0.1401
    1DPPC   C3B16295   9.745  10.209   4.760  0.1034  0.2174 -0.0743
    1DPPC   C4B16296   9.646  10.332   5.190 -0.0619 -0.1304 -0.1656
    1DPPC   NC316297  25.721  13.636   1.985  0.0295  0.1727  0.1518
    1DPPC   PO416298  25.451  14.021   1.998  0.0666  0.2276  0.0927
    1DPPC   GL116299  25.363  13.770   2.361 -0.1093 -0.0055  0.0584
    1DPPC   GL216300  25.177  13.836   2.629  0.1269 -0.2239  0.0532
    1DPPC   C1A16301  25.655  13.683   2.715  0.2320  0.1958 -0.1700
    1DPPC   C2A16302  25.810  13.560   3.085  0.2747  0.0310 -0.0733
    1DPPC   C3A16303  25.990  13.607   3.489 -0.3170  0.0170 -0.0265
    1DPPC   C4A16304  26.036  13.540   3.904 -0.0652  0.0912  0.0401
    1DPPC   C1B16305  25.312  13.842   3.072  0.0005  0.1182  0.0896
    1DPPC   C2B16306  25.226  13.461   3.276 -0.1502 -0.1605  0.1702
    1DPPC   C3B16307  25.105  13.111   3.553 -0.1013  0.2250 -0.0671
    1DPPC   C4B16308  24.874  12.683   3.498  0.0871 -0.2545  0.0877
    1DPPC   NC316309  18.319  16.381   2.766 -0.0970 -0.1391  0.0425
    1DPPC   PO416310  18.820  16.432   2.643  0.0698  0.0147  0.0826
    1DPPC   GL116311  18.622  16.128   3.020 -0.1574 -0.0008  0.1609
    1DPPC   GL216312  18.535  16.295   3.257  0.0165 -0.0019  0.0154
    1DPPC   C1A16313  18.631  15.832   3.415  0.1006  0.0660  0.0034
    1DPPC   C2A16314  18.613  15.726   3.864  0.4175 -0.3244  0.1200
    1DPPC   C3A16315  18.541  15.594   4.188  0.1024 -0.0868  0.0244
    1DPPC   C4A16316  18.572  15.466   4.675 -0.0972  0.2770  0.3052
    1DPPC   C1B16317  18.502  16.280   3.675 -0.0447 -0.3654  0.3202
    1DPPC   C2B16318  18.429  16.199   4.110  0.2828  0.0070 -0.1742
    1DPPC   C3B16319  18.696  16.025   4.379 -0.3744 -0.0513 -0.1103
    1DPPC   C4B16320  18.560  15.945   4.744  0.4512  0.3051 -0.1703
    1DPPC   NC316321   9.682  18.509   2.158 -0.1838 -0.0145  0.1659
    1DPPC   PO416322  10.003  18.348   2.405 -0.2741 -0.1417  0.0365
    1DPPC   GL116323   9.805  18.212   2.799 -0.0444 -0.1530 -0.1574
    1DPPC   GL216324   9.657  17.988   2.842  0.2277  0.1078 -0.1105
    1DPPC   C1A16325   9.731  18.441   3.229  0.1493  0.0361 -0.2356
    1DPPC   C2A16326   9.604  18.449   3.677 -0.2683  0.3687  0.1311
    1DPPC   C3A16327   9.595  18.219   4.104 -0.0173 -0.0044 -0.0076
    1DPPC   C4A16328   9.397  18.091   4.459 -0.1730 -0.1117  0.0763
    1DPPC   C1B16329   9.493  17.945   3.308  0.1915  0.2353 -0.2420
    1DPPC   C2B16330   9.480  17.748   3.702  0.1178  0.4217  0.3640
    1DPPC   C3B16331   9.404  17.699   4.074 -0.2606  0.0335 -0.2848
    1DPPC   C4B16332   9.682  17.644   4.510 -0.1191  0.1102 -0.1084
    1DPPC   NC316333  17.627  16.828   2.569 -0.2497 -0.1202  0.0332
    1DPPC   PO416334  17.308  16.721   2.660 -0.1197  0.1325 -0.0427
    1DPPC   GL116335  17.314  16.694   3.026 -0.1422 -0.1134 -0.1599
    1DPPC   GL216336  17.152  16.921   3.271  0.1389  0.1318 -0.0455
    1DPPC   C1A16337  17.428  16.534   3.402 -0.0646  0.1088 -0.2121
    1DPPC   C2A16338  17.407  16.476   3.803  0.2227  0.3324  0.1079
    1DPPC   C3A16339  17.438  16.321   4.235 -0.1196 -0.0830 -0.2144
    1DPPC   C4A16340  17.628  16.443   4.615  0.0111 -0.0706 -0.0154
    1DPPC   C1B16341  17.126  16.876   3.734  0.0520  0.1952 -0.3025
    1DPPC   C2B16342  17.154  16.737   4.155  0.2893  0.1811 -0.1279
    1DPPC   C3B16343  17.130  16.623   4.642  0.2389 -0.0313 -0.1273
    1DPPC   C4B16344  16.944  16.572   5.084 -0.0714 -0.2825 -0.1182
    1DPPC   NC316345   8.672  10.770   2.842 -0.0964 -0.1975  0.1654
    1DPPC   PO416346   8.798  11.082   3.118  0.2326  0.1225 -0.0634
    1DPPC   GL116347   8.603  11.165   3.431  0.0414  0.0360 -0.0638
    1DPPC   GL216348   8.241  11.162   3.347  0.1844  0.1023 -0.1767
    1DPPC   C1A16349   8.509  11.357   3.874  0.4860  0.2823 -0.1596
    1DPPC   C2A16350   8.526  11.329   4.267  0.0308  0.0049  0.1134
    1DPPC   C3A16351   8.235  11.441   4.610 -0.1723  0.1382 -0.1862
    1DPPC   C4A16352   7.845  11.343   4.579 -0.0193 -0.3555  0.0232
    1DPPC   C1B16353   8.135  11.069   3.749 -0.1422 -0.1515 -0.2165
    1DPPC   C2B16354   7.894  11.267   4.085 -0.2006  0.2897  0.1051
    1DPPC   C3B16355   7.446  11.148   4.131 -0.1452  0.3354 -0.0348
    1DPPC   C4B16356   7.179  10.883   4.181 -0.2139 -0.1151 -0.0789
    1DPPC   NC316357  19.250  10.063   3.023 -0.2391 -0.1395  0.1251
    1DPPC   PO416358  19.529   9.767   3.150 -0.0477 -0.2058  0.1943
    1DPPC   GL116359  19.686   9.709   3.511 -0.0898  0.0898 -0.1055
    1DPPC   GL216360  19.983   9.757   3.486 -0.0508 -0.1370  0.1151
    1DPPC   C1A16361  19.600   9.615   3.819  0.0210  0.1881 -0.2229
    1DPPC   C2A16362  19.678   9.599   4.242 -0.2395  0.1061  0.1211
    1DPPC   C3A16363  19.912   9.582   4.568 -0.4960  0.0042 -0.1209
    1DPPC   C4A16364  19.978   9.791   4.957 -0.1082  0.0595  0.0332
    1DPPC   C1B16365  20.084   9.789   3.980  0.1138 -0.2216 -0.0401
    1DPPC   C2B16366  20.155   9.971   4.440 -0.0914  0.0312 -0.2951
    1DPPC   C3B16367  20.263  10.346   4.658 -0.0489 -0.0858 -0.2433
    1DPPC   C4B16368  20.297  10.741   4.617 -0.0530  0.1473 -0.0832
    1DPPC   NC316369  18.968  18.878   2.868  0.1574  0.0923  0.0562
    1DPPC   PO416370  18.940  18.381   2.865 -0.0651  0.0099  0.3695
    1DPPC   GL116371  19.078  18.511   3.327  0.1600 -0.0062  0.1348
    1DPPC   GL216372  19.001  18.675   3.591  0.0906  0.2891 -0.1399
    1DPPC   C1A16373  19.301  18.311   3.725 -0.1084  0.1200  0.1858
    1DPPC   C2A16374  19.286  18.336   4.133  0.0976  0.2271  0.2405
    1DPPC   C3A16375  19.234  18.360   4.532 -0.1849 -0.2295 -0.0991
    1DPPC   C4A16376  19.418  18.542   4.853  0.4441  0.0965 -0.1144
    1DPPC   C1B16377  18.893  18.556   3.953 -0.1622  0.2343 -0.0755
    1DPPC   C2B16378  18.756  18.552   4.424 -0.0815 -0.0113 -0.1394
    1DPPC   C3B16379  18.847  18.480   4.862  0.0392  0.1447  0.0799
    1DPPC   C4B16380  18.639  18.407   5.259 -0.0122  0.1156 -0.1446
    1DPPC   NC316381  10.043   7.703   2.873 -0.0480 -0.1612  0.1030
    1DPPC   PO416382   9.826   8.082   3.069  0.0614  0.0017 -0.0831
    1DPPC   GL116383   9.830   7.720   3.296 -0.3565  0.0687 -0.0786
    1DPPC   GL216384   9.417   7.459   3.306  0.0991 -0.0829  0.0866
    1DPPC   C1A16385   9.794   7.421   3.609 -0.2242  0.1380 -0.0957
    1DPPC   C2A16386  10.059   7.262   4.019  0.2396  0.0682  0.0577
    1DPPC   C3A16387   9.968   7.077   4.397  0.0810  0.1986  0.0179
    1DPPC   C4A16388   9.952   7.205   4.869  0.0987  0.0712  0.1617
    1DPPC   C1B16389   9.321   7.486   3.760 -0.0634 -0.2469  0.1218
    1DPPC   C2B16390   9.527   7.488   4.174 -0.3164  0.0458 -0.0377
    1DPPC   C3B16391   9.639   7.507   4.603  0.0524  0.2238 -0.1824
    1DPPC   C4B16392   9.851   7.795   4.915  0.1182 -0.3535 -0.0817
    1DPPC   NC316393  23.885  14.363   1.840 -0.2037 -0.1713  0.0207
    1DPPC   PO416394  23.962  14.520   2.247 -0.1695  0.2135  0.2914
    1DPPC   GL116395  23.824  14.539   2.662  0.1399 -0.0374 -0.0265
    1DPPC   GL216396  24.116  14.692   2.796 -0.0051  0.2686 -0.1848
    1DPPC   C1A16397  23.701  14.498   3.098  0.2690  0.2464 -0.0053
    1DPPC   C2A16398  23.378  14.463   3.412 -0.0011  0.1577 -0.0791
    1DPPC   C3A16399  23.054  14.792   3.535  0.0432  0.0006 -0.2082
    1DPPC   C4A16400  22.987  15.162   3.688  0.1136 -0.0442  0.0062
    1DPPC   C1B16401  23.850  14.977   3.042 -0.1389  0.1565  0.3297
    1DPPC   C2B16402  23.622  15.085   3.467  0.0122 -0.0921 -0.1487
    1DPPC   C3B16403  23.389  15.346   3.851  0.3824  0.0770  0.0567
    1DPPC   C4B16404  23.304  15.276   4.163 -0.0927 -0.1140  0.2262
    1DPPC   NC316405  15.976  20.671   2.803 -0.0036 -0.0093 -0.1219
    1DPPC   PO416406  15.762  20.324   2.956  0.2733 -0.0038 -0.0388
    1DPPC   GL116407  16.008  20.198   3.246  0.1752  0.2329  0.1256
    1DPPC   GL216408  16.420  20.374   3.102  0.1971  0.1769 -0.1100
    1DPPC   C1A16409  15.998  20.027   3.556  0.1823 -0.0637  0.2891
    1DPPC   C2A16410  15.939  19.881   3.975  0.1712  0.3771  0.3219
    1DPPC   C3A16411  15.898  19.661   4.372  0.0212  0.1039  0.1756
    1DPPC   C4A16412  15.888  19.536   4.814  0.0329  0.1474  0.1684
    1DPPC   C1B16413  16.295  20.422   3.602  0.1038 -0.0580 -0.0088
    1DPPC   C2B16414  16.365  20.206   4.028 -0.2706 -0.2157 -0.0157
    1DPPC   C3B16415  16.305  20.082   4.458 -0.0620 -0.1434  0.0967
    1DPPC   C4B16416  16.167  19.929   4.821  0.1019 -0.0350 -0.3066
    1DPPC   NC316417  14.061  19.740   2.752  0.0355  0.3503 -0.1066
    1DPPC   PO416418  14.234  20.131   2.794 -0.2901 -0.0761 -0.0092
    1DPPC   GL116419  14.512  20.061   3.116  0.3100 -0.2603 -0.2168
    1DPPC   GL216420  14.719  20.213   2.976  0.1506 -0.2204 -0.1912
    1DPPC   C1A16421  14.587  20.013   3.522 -0.0110 -0.1643  0.1286
    1DPPC   C2A16422  14.492  19.897   3.985  0.0216  0.4826  0.0174
    1DPPC   C3A16423  14.544  19.790   4.456  0.0953 -0.1164 -0.3596
    1DPPC   C4A16424  14.563  19.538   4.903  0.1153  0.0456 -0.3915
    1DPPC   C1B16425  14.748  20.502   3.320 -0.2659 -0.0436  0.1379
    1DPPC   C2B16426  14.772  20.436   3.769  0.0307 -0.1142 -0.1760
    1DPPC   C3B16427  14.712  20.510   4.244 -0.0646  0.3746  0.0088
    1DPPC   C4B16428  14.750  20.456   4.642 -0.2540 -0.1152  0.0351
    1DPPC   NC316429  10.841  16.675   1.907 -0.0842  0.0744 -0.0128
    1DPPC   PO416430  11.171  16.482   2.270 -0.2053 -0.0317 -0.0342
    1DPPC   GL116431  11.294  16.578   2.727  0.3244  0.1179  0.1164
    1DPPC   GL216432  11.539  16.500   2.922 -0.1024  0.1648 -0.1278
    1DPPC   C1A16433  11.201  16.493   3.238  0.0092 -0.1321 -0.0749
    1DPPC   C2A16434  11.086  16.518   3.707 -0.1875  0.1124 -0.1619
    1DPPC   C3A16435  10.925  16.578   4.144 -0.1240  0.1690  0.0476
    1DPPC   C4A16436  10.776  16.339   4.582 -0.1662 -0.4305  0.0129
    1DPPC   C1B16437  11.737  16.335   3.316  0.0057 -0.1672 -0.0359
    1DPPC   C2B16438  11.718  16.401   3.807 -0.0661 -0.1539  0.1606
    1DPPC   C3B16439  11.699  16.378   4.185 -0.2314 -0.1012 -0.2438
    1DPPC   C4B16440  11.605  16.479   4.606  0.1547  0.0345 -0.2381
    1DPPC   NC316441  27.444  24.451   2.444 -0.0275  0.2279  0.2164
    1DPPC   PO416442  27.182  24.563   2.827  0.3805 -0.1263 -0.2084
    1DPPC   GL116443  27.204  24.599   3.211  0.2020  0.0071  0.3314
    1DPPC   GL216444  26.921  24.453   3.329 -0.0743 -0.2022 -0.1170
    1DPPC   C1A16445  27.379  24.308   3.520 -0.0978 -0.2017 -0.0802
    1DPPC   C2A16446  27.317  24.284   4.025 -0.3451  0.0713 -0.0525
    1DPPC   C3A16447  27.161  24.091   4.452 -0.1017  0.0954  0.2571
    1DPPC   C4A16448  27.055  24.308   4.808 -0.0826 -0.2478 -0.0539
    1DPPC   C1B16449  27.184  24.735   3.686  0.0739 -0.0246  0.2664
    1DPPC   C2B16450  27.343  25.049   3.998 -0.0905 -0.0668 -0.0694
    1DPPC   C3B16451  27.192  25.151   4.368  0.1654  0.2625  0.2760
    1DPPC   C4B16452  27.031  25.205   4.829  0.0656  0.1317 -0.1513
    1DPPC   NC316453  20.660  17.792   2.599 -0.0083 -0.4029 -0.2072
    1DPPC   PO416454  21.052  17.614   2.808  0.1336  0.5995 -0.1371
    1DPPC   GL116455  20.848  17.434   3.056  0.3388 -0.1415  0.0795
    1DPPC   GL216456  20.841  17.092   3.085  0.0317  0.0604 -0.4130
    1DPPC   C1A16457  20.751  17.403   3.502  0.0271 -0.1965  0.0484
    1DPPC   C2A16458  20.698  17.407   3.924  0.2664  0.1024 -0.0945
    1DPPC   C3A16459  20.713  17.425   4.335 -0.0383 -0.1891  0.0096
    1DPPC   C4A16460  20.621  17.089   4.711 -0.0351 -0.0227  0.1520
    1DPPC   C1B16461  20.824  16.860   3.426  0.1180  0.3703 -0.0219
    1DPPC   C2B16462  20.750  16.883   3.797 -0.0110 -0.0108  0.1480
    1DPPC   C3B16463  20.705  16.842   4.243  0.0667  0.0639 -0.0497
    1DPPC   C4B16464  20.741  16.669   4.654 -0.0609  0.1725  0.1876
    1DPPC   NC316465  14.906  11.816   2.419 -0.0837 -0.4445 -0.2555
    1DPPC   PO416466  14.508  11.805   2.588 -0.1838  0.0053  0.2275
    1DPPC   GL116467  14.303  11.698   2.959  0.0328  0.1412 -0.1705
    1DPPC   GL216468  13.925  11.648   3.069 -0.2955  0.0288 -0.1689
    1DPPC   C1A16469  14.413  11.512   3.337  0.0185 -0.2272 -0.0025
    1DPPC   C2A16470  14.483  11.643   3.758  0.1333 -0.1825 -0.0352
    1DPPC   C3A16471  14.579  11.675   4.058 -0.1285 -0.1903  0.0001
    1DPPC   C4A16472  14.499  11.521   4.430  0.0068  0.3329  0.0181
    1DPPC   C1B16473  14.138  11.976   3.357 -0.0121  0.1667 -0.3243
    1DPPC   C2B16474  14.167  12.025   3.713 -0.1302  0.1442  0.0528
    1DPPC   C3B16475  14.179  12.007   4.141 -0.1779  0.1257 -0.1444
    1DPPC   C4B16476  14.210  11.995   4.575  0.0804  0.2378 -0.2266
    1DPPC   NC316477  16.359  16.867   2.648  0.1999  0.2664 -0.0516
    1DPPC   PO416478  16.549  17.219   2.777  0.0687 -0.0135  0.0635
    1DPPC   GL116479  16.668  17.129   3.164  0.0755 -0.1995  0.0197
    1DPPC   GL216480  16.716  17.407   3.266  0.0801  0.0320 -0.0384
    1DPPC   C1A16481  16.653  16.941   3.502 -0.1039 -0.0636 -0.0080
    1DPPC   C2A16482  16.677  16.882   3.953  0.0882  0.0673  0.0026
    1DPPC   C3A16483  16.811  16.987   4.428  0.0120  0.0114  0.3000
    1DPPC   C4A16484  16.688  16.956   4.894  0.1464 -0.0760 -0.0350
    1DPPC   C1B16485  16.700  17.365   3.743  0.2438 -0.1748 -0.1660
    1DPPC   C2B16486  16.716  17.394   4.166  0.3138 -0.0397  0.1624
    1DPPC   C3B16487  16.677  17.440   4.613  0.1131  0.3066  0.0356
    1DPPC   C4B16488  16.824  17.423   5.033  0.2279 -0.2938 -0.3362
    1DPPC   NC316489   9.905  12.370   2.213 -0.1413 -0.0649  0.0614
    1DPPC   PO416490   9.749  12.561   2.521  0.2390  0.1508  0.1111
    1DPPC   GL116491   9.697  12.625   2.970  0.1498  0.0573 -0.2382
    1DPPC   GL216492   9.877  12.921   2.903  0.0230  0.2257  0.1975
    1DPPC   C1A16493   9.511  12.553   3.377 -0.3347 -0.4778 -0.4821
    1DPPC   C2A16494   9.413  12.467   3.814 -0.0272  0.1351  0.0660
    1DPPC   C3A16495   9.400  12.232   4.164  0.2579  0.1882  0.1830
    1DPPC   C4A16496   9.038  11.996   4.268 -0.0576 -0.2078 -0.0723
    1DPPC   C1B16497   9.716  13.049   3.320 -0.0714 -0.1612  0.2992
    1DPPC   C2B16498   9.609  12.901   3.726 -0.0030  0.2311 -0.1822
    1DPPC   C3B16499   9.606  12.910   4.189 -0.3236  0.0392  0.1664
    1DPPC   C4B16500   9.507  12.936   4.592  0.3284  0.3588  0.0505
    1DPPC   NC316501  16.549  14.830   2.435  0.0637 -0.1660  0.2635
    1DPPC   PO416502  16.100  15.025   2.475 -0.0610  0.3633 -0.0545
    1DPPC   GL116503  15.935  15.243   2.917 -0.0882 -0.0968  0.0098
    1DPPC   GL216504  15.770  14.959   2.902  0.0614 -0.1945 -0.1336
    1DPPC   C1A16505  16.007  15.405   3.323 -0.2755  0.0315  0.2225
    1DPPC   C2A16506  15.904  15.349   3.652  0.3109  0.0080 -0.0642
    1DPPC   C3A16507  15.831  15.310   4.038  0.2066 -0.1086 -0.0245
    1DPPC   C4A16508  15.797  15.317   4.477  0.1645 -0.0193  0.2414
    1DPPC   C1B16509  15.668  15.073   3.272  0.0707  0.1107  0.0783
    1DPPC   C2B16510  15.515  15.020   3.684 -0.0804 -0.0247 -0.0560
    1DPPC   C3B16511  15.681  14.825   4.155 -0.0825  0.0920  0.4134
    1DPPC   C4B16512  15.817  14.733   4.602 -0.1365 -0.1083  0.0767
    1DPPC   NC316513  12.982   9.529   3.146 -0.0067 -0.0376  0.0988
    1DPPC   PO416514  12.593   9.499   2.919 -0.0682 -0.0886  0.0083
    1DPPC   GL116515  12.560   9.553   3.387  0.1594 -0.1977 -0.1338
    1DPPC   GL216516  12.819   9.719   3.612 -0.0231  0.1446  0.4233
    1DPPC   C1A16517  12.383   9.607   3.803  0.2079 -0.0616 -0.0494
    1DPPC   C2A16518  12.422   9.640   4.241 -0.0947 -0.0822  0.0947
    1DPPC   C3A16519  12.388   9.693   4.607  0.0246 -0.1000 -0.0458
    1DPPC   C4A16520  12.428   9.929   4.930  0.0775  0.0584  0.3274
    1DPPC   C1B16521  12.862   9.784   3.987  0.2199  0.0453 -0.0913
    1DPPC   C2B16522  12.898   9.888   4.455  0.1056  0.1351 -0.0960
    1DPPC   C3B16523  12.877   9.751   4.904  0.1043 -0.0847  0.0018
    1DPPC   C4B16524  12.767   9.627   5.271  0.0394  0.1753 -0.3012
    1DPPC   NC316525  13.185  11.247   2.967 -0.0342 -0.0391  0.0833
    1DPPC   PO416526  12.747  11.029   3.080  0.0887  0.4708  0.1559
    1DPPC   GL116527  12.834  11.215   3.443 -0.0073  0.0350  0.0159
    1DPPC   GL216528  13.137  11.164   3.450  0.0893 -0.1511  0.1662
    1DPPC   C1A16529  12.695  11.447   3.792 -0.0542 -0.1423 -0.2018
    1DPPC   C2A16530  12.657  11.509   4.152 -0.1349 -0.2992 -0.1655
    1DPPC   C3A16531  12.653  11.566   4.606  0.0300 -0.0496  0.1333
    1DPPC   C4A16532  13.046  11.382   4.820  0.0259 -0.0797 -0.1826
    1DPPC   C1B16533  13.114  11.198   3.889 -0.0862  0.1023 -0.0859
    1DPPC   C2B16534  13.032  11.203   4.354 -0.1646 -0.2374 -0.4009
    1DPPC   C3B16535  12.623  11.039   4.637 -0.1175 -0.0906  0.0089
    1DPPC   C4B16536  12.666  10.789   4.947  0.2022 -0.1498  0.1776
    1DPPC   NC316537  22.945  19.964   3.125 -0.0714 -0.0731 -0.1740
    1DPPC   PO416538  23.081  20.078   3.468 -0.2919 -0.0935  0.1916
    1DPPC   GL116539  23.482  19.894   3.622  0.3936 -0.0522  0.3313
    1DPPC   GL216540  23.792  19.785   3.431  0.1144  0.1089  0.1622
    1DPPC   C1A16541  23.506  19.800   4.073  0.0560  0.2832 -0.3067
    1DPPC   C2A16542  23.674  20.055   4.454 -0.0048 -0.0684 -0.0857
    1DPPC   C3A16543  23.817  20.424   4.537 -0.2210 -0.1305 -0.1142
    1DPPC   C4A16544  23.633  20.785   4.728  0.1618 -0.1485 -0.1110
    1DPPC   C1B16545  24.030  19.775   3.795  0.1487 -0.3020  0.1234
    1DPPC   C2B16546  23.962  19.694   4.261  0.0189 -0.2567  0.0468
    1DPPC   C3B16547  24.211  19.447   4.558 -0.2404 -0.2301 -0.1014
    1DPPC   C4B16548  24.560  19.457   4.943 -0.1150 -0.1719 -0.0637
    1DPPC   NC316549  12.758   6.124   3.469 -0.1394 -0.1283  0.0231
    1DPPC   PO416550  12.985   6.035   3.816  0.0364 -0.0978  0.1445
    1DPPC   GL116551  12.940   6.038   4.208  0.1807  0.0450 -0.0218
    1DPPC   GL216552  13.155   6.129   4.304  0.3755  0.0148  0.0179
    1DPPC   C1A16553  12.696   5.722   4.409 -0.0984 -0.3643 -0.1113
    1DPPC   C2A16554  12.586   5.681   4.798  0.0939 -0.3098 -0.1326
    1DPPC   C3A16555  12.478   5.869   5.114 -0.0879 -0.1566 -0.4773
    1DPPC   C4A16556  12.717   6.008   5.490 -0.1405 -0.0917  0.2981
    1DPPC   C1B16557  13.427   6.179   4.662  0.6281  0.0445  0.2865
    1DPPC   C2B16558  13.520   5.969   4.980 -0.1861  0.1306 -0.2155
    1DPPC   C3B16559  13.771   6.010   5.299 -0.0350 -0.2855 -0.0540
    1DPPC   C4B16560  14.103   6.005   5.369  0.0010 -0.0460  0.0463
    1DPPC   NC316561   8.728  26.592   2.438  0.1220  0.1594 -0.0297
    1DPPC   PO416562   8.670  26.648   2.877  0.0890 -0.2055 -0.2030
    1DPPC   GL116563   8.584  26.509   3.212 -0.1407 -0.2665  0.0279
    1DPPC   GL216564   8.526  26.173   3.350  0.0033  0.5520  0.1567
    1DPPC   C1A16565   8.269  26.436   3.636 -0.2606  0.0572  0.0181
    1DPPC   C2A16566   8.072  26.811   3.845  0.2348 -0.2661 -0.1539
    1DPPC   C3A16567   7.925  26.928   4.250  0.1475 -0.2507  0.0173
    1DPPC   C4A16568   7.988  26.689   4.602  0.0327  0.0523 -0.0489
    1DPPC   C1B16569   8.505  25.704   3.518 -0.0958  0.1400 -0.0622
    1DPPC   C2B16570   8.766  25.546   3.882  0.0723 -0.1250  0.3169
    1DPPC   C3B16571   8.676  25.596   4.274  0.1338  0.0817  0.0417
    1DPPC   C4B16572   8.732  25.312   4.589 -0.0233 -0.0808 -0.0693
    1DPPC   NC316573  22.605  17.062   1.986  0.2681  0.3551  0.0667
    1DPPC   PO416574  22.414  16.748   2.342  0.1108  0.1251  0.0553
    1DPPC   GL116575  22.359  16.640   2.784 -0.3659  0.3011  0.0573
    1DPPC   GL216576  22.065  16.385   2.723  0.3396 -0.2877  0.3077
    1DPPC   C1A16577  22.461  16.803   3.153 -0.1072  0.1146 -0.2120
    1DPPC   C2A16578  22.178  16.704   3.591 -0.0009 -0.1566  0.1780
    1DPPC   C3A16579  22.188  16.640   4.069  0.0071 -0.0624 -0.2826
    1DPPC   C4A16580  22.100  16.569   4.523 -0.1232 -0.0978  0.1614
    1DPPC   C1B16581  22.221  16.372   3.169 -0.0523 -0.3405 -0.2389
    1DPPC   C2B16582  22.394  16.180   3.597 -0.0750 -0.1125  0.3054
    1DPPC   C3B16583  22.576  16.259   4.057 -0.0313  0.2059 -0.4744
    1DPPC   C4B16584  22.505  16.281   4.453 -0.1327 -0.0318 -0.0660
    1DPPC   NC316585  11.197  25.629   2.669  0.0836 -0.0458  0.0403
    1DPPC   PO416586  11.314  25.236   2.911  0.1979  0.2265 -0.0815
    1DPPC   GL116587  11.073  25.005   3.246 -0.0516  0.0685 -0.1551
    1DPPC   GL216588  11.240  25.198   3.535  0.3421 -0.1697  0.2611
    1DPPC   C1A16589  10.787  24.825   3.618 -0.1080  0.0563  0.0409
    1DPPC   C2A16590  10.378  24.740   3.769  0.1105  0.3440  0.0307
    1DPPC   C3A16591  10.175  24.789   4.064 -0.0376  0.1423 -0.1568
    1DPPC   C4A16592  10.188  25.071   4.285 -0.0212  0.0557 -0.0788
    1DPPC   C1B16593  11.027  25.234   3.908 -0.2941  0.0678 -0.0436
    1DPPC   C2B16594  10.634  25.066   4.057 -0.4613  0.1244  0.0075
    1DPPC   C3B16595  10.638  24.861   4.467  0.6404 -0.1157  0.1073
    1DPPC   C4B16596  10.620  24.638   4.864  0.1485 -0.0636 -0.1670
    1DPPC   NC316597  14.907   6.385   3.307 -0.1954  0.2725 -0.2058
    1DPPC   PO416598  14.601   6.192   3.616  0.1032  0.1936 -0.1470
    1DPPC   GL116599  14.396   6.329   3.971  0.1101 -0.1301  0.0718
    1DPPC   GL216600  14.597   6.569   4.092  0.0588  0.0470 -0.1407
    1DPPC   C1A16601  14.381   6.150   4.454 -0.1154  0.0116  0.1371
    1DPPC   C2A16602  14.389   6.308   4.800 -0.0977 -0.1241 -0.2747
    1DPPC   C3A16603  14.433   6.421   5.231 -0.3090 -0.0712 -0.0820
    1DPPC   C4A16604  14.520   6.680   5.674  0.5334  0.2230  0.2650
    1DPPC   C1B16605  14.290   6.651   4.373 -0.2111 -0.2634 -0.1902
    1DPPC   C2B16606  14.316   6.856   4.804 -0.0879  0.0994  0.0381
    1DPPC   C3B16607  14.214   6.892   5.313  0.1022  0.0391  0.2036
    1DPPC   C4B16608  14.135   7.027   5.710 -0.3473 -0.0993 -0.0308
    1DPPC   NC316609   9.924  13.478   2.489  0.1589  0.1754 -0.1141
    1DPPC   PO416610   9.443  13.484   2.300  0.1375 -0.0228 -0.1188
    1DPPC   GL116611   9.414  13.501   2.705 -0.0231 -0.0036 -0.4712
    1DPPC   GL216612   9.655  13.407   2.942  0.2247  0.0208 -0.2737
    1DPPC   C1A16613   9.393  13.965   2.928  0.0170  0.1564 -0.0707
    1DPPC   C2A16614   9.387  14.247   3.342  0.2997  0.0232 -0.1898
    1DPPC   C3A16615   9.287  14.426   3.765  0.3721 -0.3312  0.2264
    1DPPC   C4A16616   9.110  14.755   4.006  0.1716 -0.1970 -0.0908
    1DPPC   C1B16617   9.349  13.530   3.252  0.1999 -0.2894 -0.1760
    1DPPC   C2B16618   9.276  13.481   3.694  0.0504 -0.0477 -0.0382
    1DPPC   C3B16619   9.132  13.409   4.113  0.0944  0.2433  0.2532
    1DPPC   C4B16620   9.085  13.712   4.369 -0.0956 -0.0041 -0.2236
    1DPPC   NC316621   7.660  19.620   2.609  0.4326  0.3044  0.1281
    1DPPC   PO416622   8.055  19.526   2.681  0.0995  0.1703  0.0502
    1DPPC   GL116623   7.990  19.462   3.061 -0.1114  0.1648 -0.1414
    1DPPC   GL216624   8.096  19.116   3.082 -0.1349 -0.1867  0.0122
    1DPPC   C1A16625   8.067  19.529   3.422  0.0774  0.1434 -0.2916
    1DPPC   C2A16626   8.245  19.500   3.846  0.2756  0.0146  0.0884
    1DPPC   C3A16627   8.005  19.765   4.230  0.0864  0.0857 -0.2026
    1DPPC   C4A16628   7.978  19.721   4.627 -0.0342 -0.0819  0.0959
    1DPPC   C1B16629   8.482  18.995   3.503  0.4848  0.1643 -0.0485
    1DPPC   C2B16630   8.855  18.963   3.688 -0.2502 -0.1233 -0.2009
    1DPPC   C3B16631   8.926  18.940   4.137  0.3668  0.0734  0.1056
    1DPPC   C4B16632   8.608  18.751   4.493 -0.0554 -0.3002 -0.0048
    1DPPC   NC316633  15.653  11.131   2.187  0.1464 -0.1433 -0.0203
    1DPPC   PO416634  15.673  11.484   2.561 -0.1324  0.2482 -0.1001
    1DPPC   GL116635  15.858  11.597   2.909 -0.1088  0.0875  0.1440
    1DPPC   GL216636  15.792  11.398   3.009 -0.2191 -0.1960 -0.2105
    1DPPC   C1A16637  15.953  11.656   3.385 -0.3645  0.2253  0.0312
    1DPPC   C2A16638  15.834  11.557   3.775 -0.1486  0.2569  0.1723
    1DPPC   C3A16639  15.961  11.405   4.239  0.0549  0.1868 -0.3710
    1DPPC   C4A16640  16.082  11.365   4.726 -0.1593  0.2520 -0.2723
    1DPPC   C1B16641  15.783  11.160   3.403  0.2083 -0.0850 -0.0640
    1DPPC   C2B16642  15.774  11.046   3.829  0.0339  0.0997  0.1300
    1DPPC   C3B16643  15.673  11.008   4.202 -0.1985 -0.2095  0.1714
    1DPPC   C4B16644  15.745  10.870   4.662 -0.1582 -0.1001 -0.3163
    1DPPC   NC316645  11.242  13.859   2.632 -0.1498  0.0669 -0.0716
    1DPPC   PO416646  10.797  13.838   2.708  0.0944 -0.1032  0.0252
    1DPPC   GL116647  10.373  13.833   2.931  0.0272 -0.0166  0.1713
    1DPPC   GL216648  10.077  13.896   2.721 -0.0366 -0.0395  0.1233
    1DPPC   C1A16649  10.282  13.984   3.271  0.2576  0.2241  0.0634
    1DPPC   C2A16650  10.127  14.038   3.639  0.1961 -0.3177  0.0054
    1DPPC   C3A16651  10.100  14.033   4.037 -0.1682 -0.0524 -0.2518
    1DPPC   C4A16652  10.442  14.181   4.431 -0.1173  0.0802 -0.2666
    1DPPC   C1B16653   9.919  13.795   3.028 -0.2688  0.1153  0.2783
    1DPPC   C2B16654   9.747  13.892   3.347  0.0685  0.1196 -0.1895
    1DPPC   C3B16655   9.648  13.995   3.763  0.1994  0.1200  0.3998
    1DPPC   C4B16656   9.595  14.051   4.241 -0.0213 -0.1286  0.0052
    1DPPC   NC316657  11.972  13.448   2.595 -0.3975 -0.0075  0.1545
    1DPPC   PO416658  11.575  13.469   2.610  0.0134  0.3685  0.0285
    1DPPC   GL116659  11.656  13.821   2.928 -0.0308 -0.1854 -0.0981
    1DPPC   GL216660  11.940  13.706   2.995  0.0714 -0.1618  0.1781
    1DPPC   C1A16661  11.756  14.049   3.338 -0.5706 -0.2368 -0.1574
    1DPPC   C2A16662  11.816  14.210   3.799  0.0791  0.1909 -0.0123
    1DPPC   C3A16663  11.797  14.239   4.235 -0.1730 -0.2406 -0.0596
    1DPPC   C4A16664  11.912  14.221   4.726  0.0007  0.0280  0.2169
    1DPPC   C1B16665  12.107  13.642   3.425 -0.1447  0.0927 -0.2391
    1DPPC   C2B16666  12.057  13.764   3.812  0.0212  0.2500 -0.2142
    1DPPC   C3B16667  12.170  13.836   4.234  0.0565  0.1525  0.2051
    1DPPC   C4B16668  12.168  13.621   4.665  0.0161 -0.0590  0.1982
    1DPPC   NC316669  14.565  12.638   2.452  0.2921  0.1244 -0.3223
    1DPPC   PO416670  14.263  12.603   2.567 -0.2063 -0.0758  0.1475
    1DPPC   GL116671  14.303  12.506   2.927  0.0186  0.1759  0.0456
    1DPPC   GL216672  14.450  12.212   2.955  0.0320 -0.0055  0.1322
    1DPPC   C1A16673  14.192  12.479   3.344  0.0424 -0.0269  0.0394
    1DPPC   C2A16674  14.278  12.553   3.747  0.1864  0.1236 -0.2438
    1DPPC   C3A16675  14.261  12.583   4.203 -0.0367  0.2052  0.1385
    1DPPC   C4A16676  14.306  12.585   4.592 -0.0478 -0.0564 -0.1830
    1DPPC   C1B16677  14.581  12.219   3.395 -0.0290 -0.1605 -0.2248
    1DPPC   C2B16678  14.596  12.164   3.928 -0.0646 -0.0889 -0.0223
    1DPPC   C3B16679  14.656  12.071   4.372  0.0452  0.2882  0.1704
    1DPPC   C4B16680  14.675  12.141   4.850  0.0707  0.0106  0.0015
    1DPPC   NC316681  16.905  21.708   2.440  0.2056  0.0981 -0.1583
    1DPPC   PO416682  16.566  21.843   2.773  0.0408  0.1107  0.1771
    1DPPC   GL116683  16.526  21.815   3.161 -0.0276  0.0164  0.0799
    1DPPC   GL216684  16.206  21.546   3.259 -0.1106 -0.1390  0.0856
    1DPPC   C1A16685  16.680  22.013   3.620 -0.0686  0.1430  0.3276
    1DPPC   C2A16686  16.727  21.911   3.978  0.0260 -0.1325 -0.0627
    1DPPC   C3A16687  16.615  22.106   4.368  0.1498 -0.1991  0.0661
    1DPPC   C4A16688  16.614  22.372   4.632  0.0543 -0.0713  0.2721
    1DPPC   C1B16689  15.844  21.374   3.540 -0.1515  0.0737 -0.3196
    1DPPC   C2B16690  15.530  21.422   3.838 -0.1219 -0.1667  0.0485
    1DPPC   C3B16691  15.348  21.400   4.265 -0.0951  0.3614 -0.0782
    1DPPC   C4B16692  15.242  21.713   4.500  0.1088 -0.2752 -0.0311
    1DPPC   NC316693   3.508   1.447   3.533 -0.0211  0.4156 -0.2716
    1DPPC   PO416694   3.376   1.740   3.699  0.0060 -0.1590  0.4306
    1DPPC   GL116695   3.418   2.182   3.725 -0.2567 -0.0735 -0.1240
    1DPPC   GL216696   3.611   2.412   3.805 -0.0398 -0.2451  0.3222
    1DPPC   C1A16697   3.162   2.631   3.818 -0.0418 -0.2836 -0.0750
    1DPPC   C2A16698   3.132   2.947   4.210 -0.3388 -0.1096  0.0591
    1DPPC   C3A16699   2.879   2.989   4.527  0.0220  0.0130  0.0052
    1DPPC   C4A16700   2.659   2.821   4.895 -0.0217 -0.1081 -0.1581
    1DPPC   C1B16701   3.613   2.845   3.790 -0.1055 -0.0370 -0.1000
    1DPPC   C2B16702   3.603   3.272   4.081 -0.0690 -0.1423  0.0723
    1DPPC   C3B16703   3.521   3.307   4.467  0.0961 -0.2500 -0.2564
    1DPPC   C4B16704   3.749   3.389   4.754  0.2167 -0.1668  0.0738
    1DPPC   NC316705  12.325  18.085   2.438 -0.0380  0.1431 -0.1858
    1DPPC   PO416706  12.410  18.504   2.602 -0.1130  0.0360 -0.2108
    1DPPC   GL116707  12.242  18.557   2.961 -0.0414  0.0154  0.2214
    1DPPC   GL216708  12.002  18.601   3.000 -0.0166 -0.2390 -0.0533
    1DPPC   C1A16709  12.312  18.669   3.371 -0.2408 -0.2649  0.1306
    1DPPC   C2A16710  12.364  18.747   3.764  0.2856  0.1425 -0.0320
    1DPPC   C3A16711  12.209  18.758   4.089 -0.0260 -0.1428  0.1847
    1DPPC   C4A16712  12.206  18.905   4.507  0.3577  0.0029 -0.2202
    1DPPC   C1B16713  11.844  18.548   3.459 -0.0415  0.0202 -0.1850
    1DPPC   C2B16714  11.774  18.544   3.825  0.0416 -0.0839 -0.1489
    1DPPC   C3B16715  11.785  18.648   4.274  0.1131 -0.1786  0.2745
    1DPPC   C4B16716  11.753  18.580   4.611  0.1753  0.0740 -0.1126
    1DPPC   NC316717  11.042  15.154   2.829  0.1793  0.0929  0.0202
    1DPPC   PO416718  11.237  14.715   2.712 -0.2473 -0.1446  0.1583
    1DPPC   GL116719  11.355  14.367   2.980  0.2370  0.1496 -0.1912
    1DPPC   GL216720  11.266  14.099   3.065 -0.2462  0.2206  0.0148
    1DPPC   C1A16721  11.531  14.521   3.275 -0.3078 -0.5178 -0.1000
    1DPPC   C2A16722  11.541  14.610   3.667 -0.0636 -0.1658  0.0842
    1DPPC   C3A16723  11.447  14.667   4.063  0.1854 -0.4294 -0.1158
    1DPPC   C4A16724  11.539  14.643   4.516  0.0216  0.2481 -0.1639
    1DPPC   C1B16725  11.321  14.152   3.526 -0.0336  0.3711 -0.2280
    1DPPC   C2B16726  11.315  14.178   3.907 -0.0450  0.1195 -0.0191
    1DPPC   C3B16727  11.365  14.140   4.396  0.0794 -0.0135 -0.0791
    1DPPC   C4B16728  11.389  14.198   4.784  0.2059  0.0719 -0.0206
    1DPPC   NC316729  10.096  12.091   2.641  0.1847 -0.4206  0.0663
    1DPPC   PO416730  10.471  12.055   2.593 -0.1221 -0.0046  0.2364
    1DPPC   GL116731  10.343  12.240   3.075  0.1258  0.1893  0.2771
    1DPPC   GL216732  10.061  12.319   3.184 -0.0363 -0.0143 -0.2167
    1DPPC   C1A16733  10.440  12.282   3.548  0.1697  0.0767  0.0057
    1DPPC   C2A16734  10.438  12.619   3.922  0.1524 -0.0490  0.0613
    1DPPC   C3A16735  10.281  12.743   4.339 -0.1231  0.0096  0.1577
    1DPPC   C4A16736   9.990  12.770   4.672  0.1147 -0.0435  0.1029
    1DPPC   C1B16737   9.945  12.443   3.676 -0.1592  0.1116 -0.1430
    1DPPC   C2B16738   9.808  12.451   4.118 -0.5040  0.2357  0.0318
    1DPPC   C3B16739   9.711  12.385   4.513 -0.3011 -0.2131 -0.2426
    1DPPC   C4B16740   9.984  12.085   4.848 -0.0476  0.1929  0.0872
    1DPPC   NC316741  13.898  10.684   2.996 -0.0999 -0.2060 -0.4070
    1DPPC   PO416742  14.256  10.703   2.935 -0.1298 -0.2632 -0.1198
    1DPPC   GL116743  14.274  10.839   3.298 -0.2702 -0.2581  0.0392
    1DPPC   GL216744  14.108  11.105   3.274 -0.1222 -0.1617 -0.0130
    1DPPC   C1A16745  14.276  11.048   3.738  0.2489  0.1368 -0.2760
    1DPPC   C2A16746  14.420  11.095   4.107 -0.1534  0.0006 -0.0103
    1DPPC   C3A16747  14.556  11.019   4.431 -0.1140  0.0402 -0.1699
    1DPPC   C4A16748  14.664  11.119   4.805 -0.1288 -0.0119 -0.1828
    1DPPC   C1B16749  14.013  11.453   3.629 -0.0858  0.0484  0.1211
    1DPPC   C2B16750  14.051  11.470   4.074 -0.0553 -0.1883  0.4437
    1DPPC   C3B16751  13.961  11.519   4.479 -0.2531  0.1202 -0.0064
    1DPPC   C4B16752  14.037  11.618   4.944  0.0079  0.2820  0.3640
    1DPPC   NC316753  14.626  18.354   2.261  0.0802 -0.1327 -0.1537
    1DPPC   PO416754  14.312  18.337   2.642  0.0449  0.1754 -0.3044
    1DPPC   GL116755  14.210  18.321   3.131 -0.0470  0.0897  0.2569
    1DPPC   GL216756  14.525  18.257   3.196  0.1048  0.1306 -0.2173
    1DPPC   C1A16757  14.165  18.283   3.632  0.3180 -0.1352 -0.0700
    1DPPC   C2A16758  14.065  18.255   4.136  0.2472 -0.4670  0.4053
    1DPPC   C3A16759  13.857  18.284   4.525 -0.2129  0.1070 -0.1214
    1DPPC   C4A16760  13.455  18.014   4.691 -0.2276 -0.1302 -0.1251
    1DPPC   C1B16761  14.646  18.351   3.659 -0.2860  0.0577  0.1255
    1DPPC   C2B16762  14.580  18.265   4.085  0.0339 -0.0872 -0.0283
    1DPPC   C3B16763  14.484  18.289   4.507  0.1785 -0.0453  0.0670
    1DPPC   C4B16764  14.368  18.334   4.926  0.1336  0.0298  0.2825
    1DPPC   NC316765  20.865  12.781   2.184  0.0318  0.0610 -0.0562
    1DPPC   PO416766  20.871  12.737   2.621  0.3664  0.0351  0.2055
    1DPPC   GL116767  20.940  12.869   3.012  0.0051 -0.0450 -0.1658
    1DPPC   GL216768  20.940  13.155   2.977  0.2101 -0.0338 -0.1626
    1DPPC   C1A16769  21.155  12.804   3.445  0.1426  0.1129  0.1445
    1DPPC   C2A16770  21.476  12.905   3.771  0.2594  0.1456  0.1332
    1DPPC   C3A16771  21.500  13.140   4.117  0.6369  0.0413  0.2424
    1DPPC   C4A16772  21.552  13.075   4.506 -0.1362 -0.3822  0.0386
    1DPPC   C1B16773  20.849  13.350   3.256 -0.2998 -0.1644  0.0511
    1DPPC   C2B16774  20.901  13.331   3.571  0.3262  0.0613  0.0859
    1DPPC   C3B16775  21.001  12.967   3.940  0.0880 -0.2272 -0.0460
    1DPPC   C4B16776  20.980  12.834   4.389 -0.0602 -0.0971  0.3768
    1DPPC   NC316777  16.767  15.535   2.421  0.2969  0.0175  0.1114
    1DPPC   PO416778  16.885  15.145   2.621 -0.2351 -0.0769 -0.0413
    1DPPC   GL116779  16.883  15.424   2.964 -0.2136  0.2110 -0.1283
    1DPPC   GL216780  16.791  15.701   2.943  0.1642  0.4385 -0.1989
    1DPPC   C1A16781  16.908  15.247   3.417  0.2068 -0.2256 -0.1385
    1DPPC   C2A16782  16.780  15.196   3.815  0.2076 -0.2390  0.0283
    1DPPC   C3A16783  16.708  15.239   4.291 -0.0280 -0.2379  0.1342
    1DPPC   C4A16784  16.792  15.059   4.625  0.0889  0.2487 -0.3205
    1DPPC   C1B16785  16.850  15.820   3.352 -0.2082  0.0855  0.4095
    1DPPC   C2B16786  16.687  15.830   3.795  0.3329 -0.1858  0.1160
    1DPPC   C3B16787  16.685  15.766   4.259 -0.0432 -0.3087  0.0105
    1DPPC   C4B16788  16.532  15.812   4.666 -0.1133 -0.0995 -0.1555
    1DPPC   NC316789   9.071  15.899   2.154  0.2504 -0.0873  0.0806
    1DPPC   PO416790   8.891  16.263   2.525 -0.0358 -0.0235  0.2596
    1DPPC   GL116791   8.772  16.182   2.973  0.0866 -0.0265  0.0462
    1DPPC   GL216792   8.561  16.026   3.085 -0.6081  0.0829  0.0442
    1DPPC   C1A16793   8.714  16.478   3.395 -0.2028 -0.2383  0.1739
    1DPPC   C2A16794   8.645  16.423   3.859  0.3691 -0.0703  0.0238
    1DPPC   C3A16795   8.455  16.532   4.337 -0.0638 -0.1007  0.0717
    1DPPC   C4A16796   8.059  16.396   4.527  0.0255 -0.1301  0.1792
    1DPPC   C1B16797   8.627  15.886   3.603 -0.2370 -0.1498 -0.2698
    1DPPC   C2B16798   8.885  15.984   3.975  0.1141  0.1791  0.1012
    1DPPC   C3B16799   9.024  15.618   4.128 -0.0245 -0.2138  0.0742
    1DPPC   C4B16800   9.224  15.227   4.279 -0.1223  0.1630  0.0830
    1DPPC   NC316801  17.800  15.131   2.659  0.0265 -0.0281 -0.0116
    1DPPC   PO416802  17.907  15.441   2.582 -0.3741  0.1047  0.4045
    1DPPC   GL116803  17.761  15.535   3.010 -0.1631 -0.1418 -0.0638
    1DPPC   GL216804  17.771  15.218   3.176 -0.0589  0.2289  0.2384
    1DPPC   C1A16805  17.793  15.599   3.496  0.0384  0.0524  0.2006
    1DPPC   C2A16806  17.657  15.494   3.930  0.0994  0.0580  0.1130
    1DPPC   C3A16807  17.618  15.280   4.341 -0.0563  0.1001 -0.3511
    1DPPC   C4A16808  17.716  15.190   4.846  0.0765 -0.0407 -0.4731
    1DPPC   C1B16809  17.842  15.103   3.600  0.1633 -0.0963 -0.1211
    1DPPC   C2B16810  17.885  14.916   3.951 -0.0964 -0.2542  0.1440
    1DPPC   C3B16811  17.983  14.829   4.324  0.0874  0.0605 -0.0716
    1DPPC   C4B16812  17.919  14.751   4.699 -0.0710 -0.1866 -0.2871
    1DPPC   NC316813  25.973  23.111   3.175 -0.0703  0.0447  0.3189
    1DPPC   PO416814  26.016  23.667   3.251 -0.1916 -0.2740  0.2441
    1DPPC   GL116815  26.138  23.426   3.637  0.2734 -0.1082  0.0076
    1DPPC   GL216816  25.910  23.644   3.742 -0.0134 -0.1626 -0.5324
    1DPPC   C1A16817  26.364  23.150   3.903 -0.1155 -0.1361  0.0495
    1DPPC   C2A16818  26.599  23.073   4.337 -0.0485  0.6587 -0.0985
    1DPPC   C3A16819  26.511  22.894   4.782  0.2532  0.2317  0.0827
    1DPPC   C4A16820  26.237  23.096   5.022  0.1802 -0.1022 -0.3107
    1DPPC   C1B16821  25.920  23.909   4.100  0.3516 -0.0451 -0.0549
    1DPPC   C2B16822  25.597  24.039   4.463  0.2195  0.2476  0.1212
    1DPPC   C3B16823  25.232  24.250   4.717 -0.0062  0.0186 -0.1924
    1DPPC   C4B16824  25.009  24.467   4.926  0.0928  0.1217 -0.0379
    1DPPC   NC316825  11.726  12.668   2.522 -0.1183  0.2153 -0.1189
    1DPPC   PO416826  11.910  12.953   2.648 -0.2357 -0.0582  0.2394
    1DPPC   GL116827  11.983  12.929   3.082  0.2953  0.1977 -0.1284
    1DPPC   GL216828  12.303  12.801   3.123  0.0269 -0.0693 -0.2572
    1DPPC   C1A16829  11.974  13.107   3.466  0.1355  0.0316  0.1115
    1DPPC   C2A16830  11.912  13.284   3.893  0.1049 -0.2407 -0.1474
    1DPPC   C3A16831  11.921  13.333   4.299  0.0385 -0.1386  0.0156
    1DPPC   C4A16832  11.753  13.335   4.722  0.0713 -0.0996 -0.0163
    1DPPC   C1B16833  12.412  12.757   3.556 -0.2955 -0.0674 -0.3365
    1DPPC   C2B16834  12.361  12.882   4.016  0.0035  0.0250 -0.1030
    1DPPC   C3B16835  12.409  12.950   4.418 -0.1513 -0.2002 -0.0051
    1DPPC   C4B16836  12.307  13.134   4.764  0.3460  0.3026 -0.0415
    1DPPC   NC316837  12.571  20.444   2.513 -0.0931  0.1319 -0.2231
    1DPPC   PO416838  12.705  20.838   2.690  0.2609 -0.0635  0.0471
    1DPPC   GL116839  12.820  20.711   3.135 -0.1205  0.3316 -0.1369
    1DPPC   GL216840  12.742  20.391   3.176  0.2028 -0.0338 -0.0740
    1DPPC   C1A16841  12.784  20.659   3.686 -0.0188  0.3720  0.0118
    1DPPC   C2A16842  12.720  20.736   4.174  0.0537  0.1930  0.0151
    1DPPC   C3A16843  12.590  20.900   4.490  0.0739  0.0281 -0.0258
    1DPPC   C4A16844  12.399  20.915   4.822 -0.1107  0.0177 -0.0840
    1DPPC   C1B16845  12.751  20.176   3.550 -0.3719 -0.0091 -0.1401
    1DPPC   C2B16846  12.539  20.316   4.013  0.1216  0.1944 -0.1752
    1DPPC   C3B16847  12.347  20.269   4.332 -0.0776  0.1567  0.0846
    1DPPC   C4B16848  12.118  20.237   4.723 -0.0698 -0.4492 -0.1309
    1DPPC   NC316849   9.080  20.126   2.410  0.0721  0.0807  0.3303
    1DPPC   PO416850   8.605  20.244   2.646 -0.3412  0.0042 -0.0601
    1DPPC   GL116851   8.751  20.180   3.038 -0.2603 -0.1361 -0.2180
    1DPPC   GL216852   8.792  19.922   3.252  0.2052 -0.0647 -0.0492
    1DPPC   C1A16853   8.620  20.408   3.331  0.1113  0.1626 -0.2344
    1DPPC   C2A16854   8.768  20.519   3.704 -0.0024 -0.0030 -0.2091
    1DPPC   C3A16855   8.749  20.351   4.083  0.2349  0.3467 -0.1377
    1DPPC   C4A16856   9.023  20.265   4.432 -0.2931  0.1122  0.3587
    1DPPC   C1B16857   9.168  19.975   3.430 -0.0832  0.2398 -0.3282
    1DPPC   C2B16858   9.255  20.291   3.854 -0.2851  0.1445 -0.1004
    1DPPC   C3B16859   9.298  20.620   4.188  0.1529 -0.2496  0.1988
    1DPPC   C4B16860   9.489  20.991   4.369 -0.2200 -0.0169  0.0877
    1DPPC   NC316861  16.659   2.319   3.569  0.2161 -0.0787 -0.0624
    1DPPC   PO416862  16.354   2.528   3.705 -0.0035  0.1054  0.1601
    1DPPC   GL116863  16.349   2.604   4.027 -0.0742  0.3819  0.1299
    1DPPC   GL216864  16.618   2.734   4.039 -0.0993 -0.0746  0.1484
    1DPPC   C1A16865  16.308   2.464   4.470  0.3445  0.1485  0.1525
    1DPPC   C2A16866  16.241   2.232   4.928  0.0570 -0.0705 -0.0198
    1DPPC   C3A16867  16.088   1.986   5.326  0.2086  0.0042  0.1307
    1DPPC   C4A16868  15.670   2.088   5.527 -0.2117 -0.1223  0.0346
    1DPPC   C1B16869  16.460   2.949   4.459  0.2086  0.1659 -0.0293
    1DPPC   C2B16870  16.460   3.373   4.787 -0.0119  0.0491  0.2933
    1DPPC   C3B16871  16.187   3.652   5.059  0.0926 -0.1861  0.0561
    1DPPC   C4B16872  16.365   4.024   5.333  0.0779  0.2458  0.2547
    1DPPC   NC316873   4.476  27.027   2.906  0.1329  0.4056  0.3864
    1DPPC   PO416874   4.472  27.548   2.907  0.0681  0.0247  0.2144
    1DPPC   GL116875   4.409  27.537   3.430  0.0750  0.1751  0.0864
    1DPPC   GL216876   4.704  27.591   3.655  0.3669 -0.1761  0.0213
    1DPPC   C1A16877   4.376  27.183   3.738 -0.0625 -0.0345 -0.1748
    1DPPC   C2A16878   4.231  27.032   4.182  0.0549 -0.0112 -0.2510
    1DPPC   C3A16879   4.190  26.957   4.657 -0.1478  0.0035 -0.1332
    1DPPC   C4A16880   4.119  26.643   4.819  0.0833 -0.0427  0.1407
    1DPPC   C1B16881   4.623  27.664   4.000 -0.1818 -0.1201 -0.2302
    1DPPC   C2B16882   4.533  27.990   4.209  0.0724  0.1519 -0.2284
    1DPPC   C3B16883   4.686  28.247   4.490 -0.1567 -0.0130 -0.1241
    1DPPC   C4B16884   5.058  28.113   4.611  0.1111  0.1214 -0.0239
    1DPPC   NC316885  18.294  20.184   3.380 -0.0549 -0.0549 -0.1457
    1DPPC   PO416886  17.977  19.842   3.325  0.1388  0.0077 -0.4038
    1DPPC   GL116887  17.817  19.731   3.643 -0.0495 -0.1509 -0.1603
    1DPPC   GL216888  18.174  19.809   3.804 -0.1256 -0.1732 -0.4513
    1DPPC   C1A16889  17.788  19.577   4.031 -0.0015  0.1653 -0.0587
    1DPPC   C2A16890  17.785  19.588   4.535 -0.1974 -0.2121 -0.2357
    1DPPC   C3A16891  17.682  19.604   4.995  0.0873 -0.0005 -0.0519
    1DPPC   C4A16892  17.934  19.687   5.404  0.0721 -0.1478 -0.2593
    1DPPC   C1B16893  18.266  19.887   4.152  0.2450  0.1664  0.2915
    1DPPC   C2B16894  18.222  19.884   4.563  0.0445 -0.1733 -0.0577
    1DPPC   C3B16895  18.037  20.036   4.985 -0.0667 -0.0188  0.2984
    1DPPC   C4B16896  17.772  20.190   5.184 -0.2136 -0.0053 -0.1554
    1DPPC   NC316897  11.256   9.845   3.238 -0.4295  0.1302 -0.0726
    1DPPC   PO416898  11.335  10.288   3.125  0.1632  0.1975 -0.1270
    1DPPC   GL116899  11.384  10.403   3.509 -0.0628  0.1412  0.1999
    1DPPC   GL216900  11.131  10.356   3.656  0.3803  0.2850 -0.0932
    1DPPC   C1A16901  11.612  10.396   3.752 -0.0548 -0.0752 -0.0922
    1DPPC   C2A16902  11.803  10.458   4.152  0.2135 -0.1789 -0.0252
    1DPPC   C3A16903  11.839  10.557   4.588 -0.1709  0.2931  0.1562
    1DPPC   C4A16904  12.177  10.494   4.912  0.1407 -0.2367  0.3744
    1DPPC   C1B16905  11.254  10.504   4.050 -0.2719 -0.0079  0.4506
    1DPPC   C2B16906  11.332  10.581   4.416 -0.1958  0.1148 -0.2230
    1DPPC   C3B16907  11.100  10.642   4.696 -0.3238  0.1340 -0.0075
    1DPPC   C4B16908  10.780  10.643   5.003  0.3116 -0.3228  0.1533
    1DPPC   NC316909  10.061  16.990   2.433  0.3170 -0.0162  0.2143
    1DPPC   PO416910  10.249  16.603   2.538 -0.2506  0.1477 -0.0760
    1DPPC   GL116911  10.121  16.530   2.934 -0.0211  0.0072  0.1410
    1DPPC   GL216912   9.846  16.348   2.797  0.0833  0.2446 -0.1961
    1DPPC   C1A16913  10.155  16.481   3.360 -0.1329 -0.1956 -0.2316
    1DPPC   C2A16914   9.913  16.279   3.743 -0.1542 -0.1869 -0.1415
    1DPPC   C3A16915  10.028  16.318   4.246  0.1330 -0.3905 -0.1333
    1DPPC   C4A16916  10.273  16.519   4.580 -0.3098  0.0954  0.2999
    1DPPC   C1B16917   9.704  16.473   3.122  0.0292 -0.0967  0.2323
    1DPPC   C2B16918   9.510  16.477   3.590  0.0898 -0.2456 -0.1531
    1DPPC   C3B16919   9.243  16.519   3.859 -0.0040 -0.1904  0.0705
    1DPPC   C4B16920   9.062  16.358   4.210  0.2005 -0.0895  0.0429
    1DPPC   NC316921  10.734   8.370   2.695  0.1054 -0.1871 -0.0783
    1DPPC   PO416922  10.919   8.094   3.050 -0.1709 -0.0347  0.0113
    1DPPC   GL116923  10.709   8.147   3.482 -0.2613  0.3912 -0.3474
    1DPPC   GL216924  10.679   8.464   3.506 -0.0590 -0.2375  0.0092
    1DPPC   C1A16925  10.503   8.109   3.900 -0.0124 -0.0271 -0.1222
    1DPPC   C2A16926  10.514   8.145   4.386  0.0108 -0.1861  0.0641
    1DPPC   C3A16927  10.498   8.316   4.816 -0.5563  0.1425  0.0793
    1DPPC   C4A16928  10.322   8.496   5.192 -0.1302 -0.2494 -0.2431
    1DPPC   C1B16929  10.541   8.658   3.780 -0.1736 -0.2356  0.1304
    1DPPC   C2B16930  10.644   8.545   4.104 -0.1275  0.3277 -0.0962
    1DPPC   C3B16931  10.779   8.632   4.544  0.2462  0.1838  0.0732
    1DPPC   C4B16932  10.675   8.725   4.958  0.1801  0.4168 -0.0154
    1DPPC   NC316933  17.457  11.215   2.381  0.1236  0.0353  0.0489
    1DPPC   PO416934  17.716  11.431   2.592  0.2881 -0.1623  0.2328
    1DPPC   GL116935  17.777  11.483   3.064 -0.2824  0.1892 -0.0494
    1DPPC   GL216936  18.030  11.334   3.226 -0.0460 -0.3009 -0.1668
    1DPPC   C1A16937  17.547  11.583   3.556 -0.0422  0.1203  0.2797
    1DPPC   C2A16938  17.309  11.613   4.067 -0.0909  0.1340  0.5365
    1DPPC   C3A16939  17.082  11.449   4.392  0.4844 -0.2261  0.0822
    1DPPC   C4A16940  16.902  11.662   4.694  0.2476 -0.0331 -0.1807
    1DPPC   C1B16941  18.048  11.343   3.591 -0.2082 -0.0087  0.1485
    1DPPC   C2B16942  18.064  11.514   4.031  0.2519 -0.0759  0.0148
    1DPPC   C3B16943  18.087  11.530   4.538 -0.0775  0.0161  0.1318
    1DPPC   C4B16944  18.424  11.410   4.847 -0.3080  0.1571  0.1465
    1DPPC   NC316945  10.976  22.377   2.306  0.0726  0.2997  0.0341
    1DPPC   PO416946  10.776  22.022   2.272  0.3062 -0.0762 -0.0625
    1DPPC   GL116947  10.858  22.113   2.807  0.0623 -0.2069 -0.1183
    1DPPC   GL216948  10.625  22.369   3.027 -0.2438 -0.0149 -0.2882
    1DPPC   C1A16949  10.935  21.922   3.220  0.0513 -0.3332  0.2204
    1DPPC   C2A16950  10.796  21.866   3.631 -0.2416  0.2093 -0.1043
    1DPPC   C3A16951  10.883  21.961   3.967 -0.1875 -0.0228 -0.2490
    1DPPC   C4A16952  11.232  22.030   4.196  0.1024 -0.1955 -0.1869
    1DPPC   C1B16953  10.558  22.294   3.459 -0.0174  0.0564 -0.1176
    1DPPC   C2B16954  10.651  22.394   3.900 -0.0756 -0.0401 -0.0617
    1DPPC   C3B16955  10.852  22.434   4.372 -0.0618  0.1718 -0.1567
    1DPPC   C4B16956  11.229  22.537   4.697  0.4959 -0.2600 -0.2882
    1DPPC   NC316957  18.414  14.583   2.638 -0.1336  0.0341 -0.1150
    1DPPC   PO416958  17.979  14.697   2.762 -0.1684  0.2124 -0.1667
    1DPPC   GL116959  17.758  14.722   3.152 -0.2928  0.1352  0.1074
    1DPPC   GL216960  18.074  14.697   3.299 -0.3210 -0.1546  0.2919
    1DPPC   C1A16961  17.620  14.623   3.531  0.2752  0.2789 -0.0066
    1DPPC   C2A16962  17.604  14.527   3.899 -0.1753  0.1604  0.3629
    1DPPC   C3A16963  17.494  14.609   4.276  0.3360 -0.0170  0.2231
    1DPPC   C4A16964  17.415  14.567   4.721  0.3795  0.1231 -0.2632
    1DPPC   C1B16965  18.161  14.654   3.653  0.0308  0.0539  0.0944
    1DPPC   C2B16966  18.197  14.445   4.019  0.0907 -0.0257 -0.0004
    1DPPC   C3B16967  17.887  14.242   4.292  0.2085 -0.0415 -0.3501
    1DPPC   C4B16968  18.057  14.242   4.668  0.2469  0.2138  0.1943
    1DPPC   NC316969  19.269   0.539   3.088 -0.4271 -0.1542  0.4011
    1DPPC   PO416970  19.009   0.210   3.149  0.2453  0.0587 -0.0669
    1DPPC   GL116971  18.909   0.152   3.681 -0.2240  0.1177  0.0867
    1DPPC   GL216972  19.050  -0.228   3.719 -0.0339 -0.2822 -0.0049
    1DPPC   C1A16973  19.127   0.251   4.074 -0.2670  0.0723 -0.0332
    1DPPC   C2A16974  19.429   0.512   4.349 -0.1909 -0.0947  0.3834
    1DPPC   C3A16975  19.459   0.658   4.759  0.1187  0.0172 -0.0450
    1DPPC   C4A16976  19.109   0.503   5.056 -0.1499  0.0064  0.0266
    1DPPC   C1B16977  19.000  -0.213   4.193 -0.1434  0.2186 -0.0512
    1DPPC   C2B16978  19.024  -0.257   4.640 -0.1656 -0.2195 -0.4141
    1DPPC   C3B16979  19.105  -0.282   5.096  0.2583 -0.1192 -0.4462
    1DPPC   C4B16980  19.437  -0.254   5.409  0.1074  0.1719 -0.0963
    1DPPC   NC316981  13.009  14.231   2.709  0.0746 -0.1147 -0.0718
    1DPPC   PO416982  13.136  14.596   2.352  0.4606 -0.2142  0.0552
    1DPPC   GL116983  13.009  14.763   2.740  0.1737 -0.2192  0.2898
    1DPPC   GL216984  12.781  14.706   2.912  0.0285 -0.1725 -0.0909
    1DPPC   C1A16985  13.224  14.887   3.145  0.1104  0.0020 -0.1581
    1DPPC   C2A16986  13.266  14.960   3.646  0.1496 -0.0968 -0.1109
    1DPPC   C3A16987  13.004  14.919   4.075  0.0817 -0.1556 -0.0002
    1DPPC   C4A16988  12.987  15.091   4.461  0.3042 -0.1121  0.1480
    1DPPC   C1B16989  12.855  14.645   3.345 -0.0739 -0.0625 -0.1200
    1DPPC   C2B16990  12.941  14.539   3.768 -0.0204  0.0065 -0.2799
    1DPPC   C3B16991  12.804  14.527   4.258 -0.1642  0.0821 -0.0281
    1DPPC   C4B16992  12.770  14.525   4.635  0.1806  0.0831 -0.0578
    1DPPC   NC316993  10.637  13.375   2.824  0.2536 -0.0773 -0.1356
    1DPPC   PO416994  10.291  13.155   2.638  0.0146 -0.1330  0.0912
    1DPPC   GL116995  10.531  12.917   2.996  0.0446 -0.3666  0.0355
    1DPPC   GL216996  10.275  12.792   3.171 -0.3238 -0.1073  0.3368
    1DPPC   C1A16997  10.587  13.054   3.428 -0.0262  0.0768  0.1535
    1DPPC   C2A16998  10.524  13.127   3.804  0.1688  0.4288  0.0656
    1DPPC   C3A16999  10.511  13.199   4.308  0.0379  0.0636  0.1027
    1DPPC   C4A17000  10.560  12.912   4.753 -0.3915  0.0363  0.1495
    1DPPC   C1B17001  10.124  12.842   3.495 -0.0730 -0.1666 -0.2284
    1DPPC   C2B17002  10.040  12.959   3.932  0.0843  0.1917 -0.2285
    1DPPC   C3B17003   9.970  13.212   4.299  0.0707  0.0298 -0.0873
    1DPPC   C4B17004   9.895  13.230   4.690 -0.0437  0.0340 -0.0293
    1DPPC   NC317005   8.479  17.584   2.399 -0.0920  0.1292 -0.2181
    1DPPC   PO417006   8.588  17.952   2.621 -0.1182  0.1183  0.0478
    1DPPC   GL117007   8.563  17.643   2.902 -0.1537 -0.0372 -0.0285
    1DPPC   GL217008   8.899  17.479   2.966  0.0153  0.0824  0.0440
    1DPPC   C1A17009   8.214  17.610   3.282  0.0298  0.2042  0.1339
    1DPPC   C2A17010   8.197  17.904   3.644  0.0681  0.1428  0.0145
    1DPPC   C3A17011   8.087  18.191   3.952 -0.1338 -0.1645  0.2063
    1DPPC   C4A17012   7.965  18.332   4.408  0.0406  0.2031  0.0558
    1DPPC   C1B17013   8.692  17.476   3.385  0.2086 -0.1382 -0.1418
    1DPPC   C2B17014   8.451  17.497   3.724  0.0703  0.1026 -0.1856
    1DPPC   C3B17015   8.271  17.635   4.080  0.1945 -0.3435  0.1739
    1DPPC   C4B17016   8.176  17.711   4.457  0.3329  0.0140 -0.1338
    1DPPC   NC317017  12.098  19.720   2.458  0.2469 -0.0010  0.0421
    1DPPC   PO417018  12.570  19.900   2.466 -0.0326 -0.0088  0.1488
    1DPPC   GL117019  12.318  20.127   2.826  0.0697 -0.0148  0.0473
    1DPPC   GL217020  12.306  20.467   2.998 -0.1213 -0.1945  0.0162
    1DPPC   C1A17021  11.980  20.066   3.132  0.1239  0.1297 -0.0914
    1DPPC   C2A17022  11.726  20.040   3.462 -0.0388  0.2897 -0.1549
    1DPPC   C3A17023  11.396  20.306   3.722 -0.2776  0.1042  0.0443
    1DPPC   C4A17024  11.223  20.519   4.166 -0.0520  0.1767 -0.2328
    1DPPC   C1B17025  12.355  20.720   3.385  0.0044  0.2338  0.0175
    1DPPC   C2B17026  12.283  20.729   3.805 -0.1071  0.1997 -0.3896
    1DPPC   C3B17027  12.141  20.887   4.005 -0.0344  0.0937  0.1930
    1DPPC   C4B17028  12.077  21.096   4.254  0.1924  0.1717 -0.1630
    1DPPC   NC317029  12.493  25.103   3.190  0.0346 -0.2568 -0.0464
    1DPPC   PO417030  12.762  25.416   3.362 -0.0209 -0.1907 -0.0652
    1DPPC   GL117031  12.507  25.384   3.762  0.1882 -0.0758  0.1919
    1DPPC   GL217032  12.728  25.542   3.980  0.1332  0.4955 -0.0424
    1DPPC   C1A17033  12.426  25.302   4.247  0.0406 -0.0229  0.0917
    1DPPC   C2A17034  12.677  25.453   4.713 -0.0712 -0.1201  0.3377
    1DPPC   C3A17035  12.686  25.771   5.081  0.0537  0.2078  0.2736
    1DPPC   C4A17036  12.978  26.024   5.277 -0.3435  0.3521 -0.2926
    1DPPC   C1B17037  12.935  25.256   4.266  0.0913  0.2314 -0.2346
    1DPPC   C2B17038  12.680  24.943   4.491  0.1902  0.1002  0.1073
    1DPPC   C3B17039  12.331  25.016   4.686  0.0921  0.2518 -0.1425
    1DPPC   C4B17040  11.870  24.920   4.522  0.1145  0.1260  0.2695
    1DPPC   NC317041   9.719  10.364   3.039  0.1326 -0.1233  0.2817
    1DPPC   PO417042   9.847  10.597   3.227  0.1410  0.0471  0.3813
    1DPPC   GL117043   9.765  10.668   3.623  0.2955 -0.0999  0.2266
    1DPPC   GL217044   9.491  10.561   3.635 -0.4192  0.2128  0.1386
    1DPPC   C1A17045   9.614  10.972   3.857  0.2490 -0.0233  0.2637
    1DPPC   C2A17046   9.598  10.994   4.352 -0.0783  0.1351  0.1461
    1DPPC   C3A17047   9.540  11.062   4.724  0.0741 -0.1534 -0.2029
    1DPPC   C4A17048   9.373  11.365   4.984 -0.1033  0.0858 -0.3079
    1DPPC   C1B17049   9.523  10.577   4.083  0.3706  0.0307  0.3392
    1DPPC   C2B17050   9.387  10.498   4.483 -0.2610 -0.2977 -0.0824
    1DPPC   C3B17051   9.327  10.515   4.902  0.2807 -0.0036  0.2412
    1DPPC   C4B17052   9.103  10.414   5.278 -0.2807 -0.2315  0.0964
    1DPPC   NC317053  15.542  18.150   2.650  0.1347 -0.0026  0.2014
    1DPPC   PO417054  15.445  18.597   2.784 -0.3003  0.2343  0.0934
    1DPPC   GL117055  15.511  18.383   3.159  0.0259  0.2250  0.0526
    1DPPC   GL217056  15.566  18.058   3.148  0.0483 -0.3158 -0.0567
    1DPPC   C1A17057  15.526  18.492   3.561 -0.0936 -0.1660  0.0686
    1DPPC   C2A17058  15.465  18.394   3.946  0.0199 -0.0276  0.1258
    1DPPC   C3A17059  15.429  18.322   4.278  0.0578  0.0368  0.2309
    1DPPC   C4A17060  15.405  18.156   4.631 -0.0786  0.3638  0.1927
    1DPPC   C1B17061  15.576  17.974   3.577  0.2781  0.0627  0.0659
    1DPPC   C2B17062  15.498  17.846   4.024 -0.1336 -0.0775  0.1191
    1DPPC   C3B17063  15.559  17.732   4.393  0.5536  0.0892  0.0354
    1DPPC   C4B17064  15.394  17.659   4.841 -0.1177  0.1065  0.0113
    1DPPC   NC317065  19.878  10.597   2.714 -0.0695 -0.2375  0.2370
    1DPPC   PO417066  19.749  10.125   2.843  0.2823 -0.4442 -0.1740
    1DPPC   GL117067  19.839  10.205   3.249 -0.1157  0.1267  0.0308
    1DPPC   GL217068  20.027  10.400   3.266  0.2601 -0.0152  0.0395
    1DPPC   C1A17069  19.842  10.172   3.698 -0.1596  0.0509  0.3569
    1DPPC   C2A17070  19.686  10.068   4.129 -0.3685  0.3109 -0.0456
    1DPPC   C3A17071  19.663   9.994   4.564  0.0698 -0.1145 -0.0409
    1DPPC   C4A17072  19.278   9.852   4.748  0.1338 -0.1664  0.0626
    1DPPC   C1B17073  20.013  10.825   3.440  0.2244  0.1243  0.2460
    1DPPC   C2B17074  19.966  11.139   3.733 -0.0964 -0.1761 -0.0124
    1DPPC   C3B17075  19.964  11.428   3.970 -0.2089  0.1297  0.1483
    1DPPC   C4B17076  20.139  11.813   3.958  0.0747 -0.0792  0.0624
    1DPPC   NC317077  13.330   6.385   3.912 -0.2866  0.8810  0.1235
    1DPPC   PO417078  13.346   6.907   3.785  0.0326  0.0102  0.1296
    1DPPC   GL117079  13.362   7.094   4.157 -0.1086  0.1488  0.1399
    1DPPC   GL217080  13.087   7.142   4.237 -0.0313  0.0588  0.2419
    1DPPC   C1A17081  13.498   7.104   4.501  0.1520 -0.1198 -0.1640
    1DPPC   C2A17082  13.723   7.087   4.916 -0.3701  0.3383 -0.2815
    1DPPC   C3A17083  13.706   7.005   5.367 -0.0700  0.1562 -0.0021
    1DPPC   C4A17084  13.591   6.715   5.729  0.0264 -0.0251  0.0676
    1DPPC   C1B17085  13.003   7.309   4.625  0.0160  0.1300  0.1096
    1DPPC   C2B17086  13.221   7.359   4.970 -0.1681 -0.1606 -0.4454
    1DPPC   C3B17087  13.473   7.455   5.295  0.0322  0.3182  0.0056
    1DPPC   C4B17088  13.929   7.451   5.417  0.2266  0.0264 -0.1301
    1DPPC   NC317089  19.202  15.208   1.921 -0.1826 -0.2500  0.1682
    1DPPC   PO417090  19.208  15.323   2.316  0.0419  0.1776 -0.1750
    1DPPC   GL117091  19.015  15.440   2.678 -0.0428  0.3049  0.1903
    1DPPC   GL217092  19.296  15.452   2.864 -0.0264 -0.1602  0.0736
    1DPPC   C1A17093  18.772  15.465   3.083 -0.0438 -0.1331  0.0273
    1DPPC   C2A17094  18.786  15.366   3.534  0.2826 -0.1247 -0.0572
    1DPPC   C3A17095  18.862  15.309   3.946  0.1154 -0.1320 -0.2037
    1DPPC   C4A17096  18.811  15.116   4.363 -0.1335  0.0833  0.3443
    1DPPC   C1B17097  19.346  15.417   3.272  0.2655  0.2059 -0.1657
    1DPPC   C2B17098  19.354  15.320   3.735 -0.1854 -0.0471 -0.2550
    1DPPC   C3B17099  19.336  15.279   4.199  0.2018  0.0264 -0.0541
    1DPPC   C4B17100  19.336  15.140   4.650  0.3209  0.2026 -0.3092
    1DPPC   NC317101  12.816   9.852   2.691 -0.0433  0.3453  0.3568
    1DPPC   PO417102  13.226   9.813   2.884  0.1339 -0.3263  0.1036
    1DPPC   GL117103  13.203   9.911   3.378  0.0481 -0.2635  0.0490
    1DPPC   GL217104  13.468   9.784   3.497 -0.2173 -0.3219 -0.0003
    1DPPC   C1A17105  13.024  10.189   3.698 -0.1395  0.4931 -0.3108
    1DPPC   C2A17106  13.093  10.235   4.078 -0.0579  0.1862  0.1541
    1DPPC   C3A17107  13.217  10.312   4.382 -0.0863  0.0554  0.0907
    1DPPC   C4A17108  13.454  10.319   4.800  0.0028  0.0815  0.2014
    1DPPC   C1B17109  13.394   9.810   3.966 -0.3264 -0.1963 -0.1997
    1DPPC   C2B17110  13.407   9.865   4.419  0.2572 -0.0228 -0.1043
    1DPPC   C3B17111  13.382   9.794   4.915  0.0041 -0.1791 -0.0165
    1DPPC   C4B17112  13.653   9.741   5.358 -0.0545  0.0660 -0.3140
    1DPPC   NC317113  17.827   1.573   3.178  0.0867 -0.1727  0.1309
    1DPPC   PO417114  17.530   1.371   3.117  0.0814 -0.1836  0.2217
    1DPPC   GL117115  17.608   1.190   3.516  0.0948  0.2024 -0.2939
    1DPPC   GL217116  17.650   0.915   3.642 -0.3163  0.1355 -0.0971
    1DPPC   C1A17117  17.903   1.395   3.853  0.1847 -0.0082  0.2707
    1DPPC   C2A17118  18.033   1.612   4.194 -0.0173  0.0342 -0.1705
    1DPPC   C3A17119  18.416   1.701   4.437 -0.0058 -0.1830  0.0198
    1DPPC   C4A17120  18.684   2.151   4.509  0.0221  0.1794 -0.1018
    1DPPC   C1B17121  17.379   0.989   3.870 -0.0591 -0.1935 -0.0523
    1DPPC   C2B17122  17.346   1.356   4.049 -0.0553  0.0950  0.1390
    1DPPC   C3B17123  17.247   1.505   4.358  0.1286 -0.1119 -0.2259
    1DPPC   C4B17124  17.040   1.368   4.826 -0.0105  0.1008 -0.3282
    1DPPC   NC317125  14.925  17.524   2.668 -0.2079 -0.2791 -0.2452
    1DPPC   PO417126  15.351  17.707   2.739 -0.3266 -0.0288 -0.2557
    1DPPC   GL117127  15.352  17.656   3.218 -0.0762 -0.1023  0.1577
    1DPPC   GL217128  15.618  17.526   3.315 -0.2528  0.0968 -0.1461
    1DPPC   C1A17129  15.324  17.491   3.677  0.4633 -0.3165 -0.0897
    1DPPC   C2A17130  15.281  17.357   4.099  0.1427 -0.0390  0.1197
    1DPPC   C3A17131  15.184  17.323   4.446 -0.0403 -0.0898 -0.0243
    1DPPC   C4A17132  15.030  17.340   4.846  0.2476 -0.2053 -0.1817
    1DPPC   C1B17133  15.883  17.600   3.660 -0.0714 -0.2298 -0.1048
    1DPPC   C2B17134  15.883  17.518   4.105 -0.0126  0.0552  0.0936
    1DPPC   C3B17135  15.807  17.299   4.494  0.2093  0.2174 -0.2718
    1DPPC   C4B17136  15.514  16.984   4.657 -0.1564 -0.0551 -0.2006
    1DPPC   NC317137  15.801  12.058   2.725 -0.1267 -0.0030  0.0666
    1DPPC   PO417138  16.088  11.906   2.510  0.0560 -0.0827 -0.0498
    1DPPC   GL117139  16.196  12.055   3.035 -0.0792 -0.1276  0.2985
    1DPPC   GL217140  16.372  12.340   3.116 -0.0814  0.0727 -0.0672
    1DPPC   C1A17141  15.943  12.129   3.385 -0.2464 -0.2354  0.3483
    1DPPC   C2A17142  15.939  12.170   3.870  0.0044  0.2538  0.4151
    1DPPC   C3A17143  15.958  12.195   4.336 -0.0700  0.0552 -0.1557
    1DPPC   C4A17144  16.027  12.280   4.769 -0.0454 -0.0849 -0.1981
    1DPPC   C1B17145  16.383  12.304   3.523  0.1672  0.0425 -0.2840
    1DPPC   C2B17146  16.427  12.266   4.085 -0.0625  0.0360  0.3841
    1DPPC   C3B17147  16.482  12.333   4.456 -0.0144 -0.1498  0.1248
    1DPPC   C4B17148  16.631  12.597   4.942  0.1189  0.1820 -0.0543
    1DPPC   NC317149   8.482   0.853   3.394  0.4489 -0.1831  0.0088
    1DPPC   PO417150   8.196   1.062   3.571 -0.0021 -0.3401  0.1976
    1DPPC   GL117151   8.367   0.928   3.939 -0.0211 -0.2465 -0.0934
    1DPPC   GL217152   8.590   1.252   4.046  0.1551 -0.0634  0.1941
    1DPPC   C1A17153   8.477   0.746   4.272 -0.1886 -0.1508  0.1434
    1DPPC   C2A17154   8.324   0.550   4.569 -0.3551  0.0058 -0.4205
    1DPPC   C3A17155   8.233   0.303   4.982 -0.0776 -0.0991 -0.0862
    1DPPC   C4A17156   8.128   0.164   5.385  0.2069  0.4069  0.0329
    1DPPC   C1B17157   8.355   1.222   4.418 -0.2618  0.1602 -0.0824
    1DPPC   C2B17158   8.398   0.989   4.787  0.3747 -0.2186 -0.2379
    1DPPC   C3B17159   8.479   0.743   5.121 -0.3983 -0.2531 -0.0076
    1DPPC   C4B17160   8.527   0.573   5.542 -0.0404  0.0144  0.0064
    1DPPC   NC317161  11.913   8.223   3.631 -0.0177  0.0629 -0.0419
    1DPPC   PO417162  11.552   7.929   3.504  0.1730  0.2017  0.2204
    1DPPC   GL117163  11.505   7.792   3.955  0.0544  0.1860  0.2234
    1DPPC   GL217164  11.234   7.562   4.130  0.0701 -0.1164 -0.0505
    1DPPC   C1A17165  11.634   7.820   4.349  0.2517 -0.1489  0.2065
    1DPPC   C2A17166  11.522   7.773   4.798 -0.1538 -0.0600 -0.0672
    1DPPC   C3A17167  11.134   7.914   5.114  0.3393  0.0372 -0.0651
    1DPPC   C4A17168  10.835   8.187   5.297  0.2323 -0.2222  0.0003
    1DPPC   C1B17169  11.140   7.563   4.566  0.0796  0.1022  0.2271
    1DPPC   C2B17170  11.243   7.396   5.001  0.0149 -0.0595  0.1240
    1DPPC   C3B17171  11.338   6.953   5.221 -0.0420 -0.2440  0.1609
    1DPPC   C4B17172  11.396   6.517   5.479  0.0608 -0.1290  0.1368
    1DPPC   NC317173  10.168  17.497   1.714  0.0096  0.1671 -0.0312
    1DPPC   PO417174  10.260  17.336   2.135  0.1514  0.2777 -0.1659
    1DPPC   GL117175  10.415  17.440   2.526 -0.1225  0.2607 -0.1151
    1DPPC   GL217176  10.176  17.346   2.698  0.1471 -0.1849  0.1787
    1DPPC   C1A17177  10.594  17.687   2.903 -0.0702 -0.0837 -0.2052
    1DPPC   C2A17178  10.584  17.834   3.442 -0.1220  0.1211  0.3563
    1DPPC   C3A17179  10.441  17.966   3.844  0.1638 -0.0664 -0.0202
    1DPPC   C4A17180  10.530  17.968   4.265 -0.2223  0.1077  0.1173
    1DPPC   C1B17181  10.247  17.390   3.134  0.1092 -0.0967 -0.0067
    1DPPC   C2B17182  10.252  17.430   3.555 -0.3535 -0.2743 -0.0965
    1DPPC   C3B17183  10.326  17.405   3.931 -0.2385 -0.3038 -0.1350
    1DPPC   C4B17184  10.185  17.467   4.450 -0.0800  0.0148  0.1432
    1DPPC   NC317185   5.925  11.671   3.476 -0.0225 -0.0248 -0.0200
    1DPPC   PO417186   5.783  11.304   3.402  0.0085 -0.1950  0.1634
    1DPPC   GL117187   5.551  11.045   3.549 -0.0278 -0.0443 -0.3159
    1DPPC   GL217188   5.237  11.058   3.698  0.1936 -0.2345 -0.1575
    1DPPC   C1A17189   5.560  10.825   3.999  0.0472  0.1282 -0.1078
    1DPPC   C2A17190   5.780  10.883   4.312  0.1270 -0.1367 -0.3763
    1DPPC   C3A17191   5.923  10.921   4.689 -0.0240  0.0895  0.0474
    1DPPC   C4A17192   6.265  11.023   4.940  0.1965  0.1831 -0.3573
    1DPPC   C1B17193   4.993  11.167   4.113 -0.0686  0.0136 -0.0141
    1DPPC   C2B17194   5.048  11.386   4.382  0.4820 -0.1624 -0.0670
    1DPPC   C3B17195   5.169  11.488   4.865 -0.0823 -0.0810  0.3711
    1DPPC   C4B17196   5.251  11.921   4.899 -0.1117 -0.3549 -0.2067
    1DPPC   NC317197   9.878   8.636   2.916 -0.2286  0.1483  0.0824
    1DPPC   PO417198   9.853   8.864   3.323  0.0693  0.0881  0.2228
    1DPPC   GL117199   9.994   8.679   3.673 -0.0472 -0.2276 -0.2928
    1DPPC   GL217200   9.713   8.502   3.708 -0.0515  0.1298 -0.0394
    1DPPC   C1A17201  10.096   8.502   4.104  0.1275  0.1174  0.0621
    1DPPC   C2A17202  10.218   8.620   4.421 -0.2025  0.0239 -0.0950
    1DPPC   C3A17203  10.190   8.814   4.793 -0.2053 -0.2903 -0.0113
    1DPPC   C4A17204  10.322   9.050   5.152  0.0922  0.1139 -0.0467
    1DPPC   C1B17205   9.667   8.661   4.055  0.2308  0.3239  0.0901
    1DPPC   C2B17206   9.731   8.589   4.500 -0.3203 -0.3612 -0.0854
    1DPPC   C3B17207   9.949   8.412   4.926 -0.2188 -0.0052  0.0629
    1DPPC   C4B17208   9.972   8.194   5.396 -0.0213  0.1911  0.0795
    1DPPC   NC317209  22.945  18.120   2.826 -0.2362 -0.0609  0.0591
    1DPPC   PO417210  23.147  18.522   3.005  0.1946  0.0669 -0.0414
    1DPPC   GL117211  22.984  18.493   3.410 -0.1752 -0.0738 -0.0176
    1DPPC   GL217212  22.640  18.662   3.437  0.1994  0.0429  0.0644
    1DPPC   C1A17213  23.134  18.370   3.876 -0.1154  0.2877 -0.1953
    1DPPC   C2A17214  23.158  17.966   4.103  0.2987 -0.0595  0.1192
    1DPPC   C3A17215  23.311  17.705   4.324  0.1719 -0.2196  0.0125
    1DPPC   C4A17216  23.552  17.380   4.372  0.1728  0.0373  0.1211
    1DPPC   C1B17217  22.692  18.565   3.917  0.1731 -0.2531 -0.1125
    1DPPC   C2B17218  22.699  18.393   4.346  0.1882  0.1877  0.0198
    1DPPC   C3B17219  22.548  18.492   4.742  0.3901 -0.0854  0.0866
    1DPPC   C4B17220  22.447  18.641   5.209  0.2199  0.1238  0.1326
    1DPPC   NC317221  17.377  13.841   2.416  0.1141  0.0278 -0.1170
    1DPPC   PO417222  17.496  13.435   2.450 -0.0336  0.1616 -0.2098
    1DPPC   GL117223  17.372  13.622   2.859  0.0391  0.0440 -0.0313
    1DPPC   GL217224  17.397  13.363   3.003  0.2631  0.0352  0.2453
    1DPPC   C1A17225  17.181  13.884   3.182 -0.0812 -0.0441 -0.0429
    1DPPC   C2A17226  16.880  13.964   3.444  0.1530  0.0075  0.0173
    1DPPC   C3A17227  16.904  13.956   3.817  0.2319 -0.1734 -0.0367
    1DPPC   C4A17228  16.988  13.937   4.270 -0.2784 -0.0728 -0.0712
    1DPPC   C1B17229  17.333  13.301   3.423 -0.3005  0.2874  0.1168
    1DPPC   C2B17230  17.386  13.306   3.859 -0.0495 -0.0492 -0.1291
    1DPPC   C3B17231  17.375  13.626   4.141  0.0923  0.1501 -0.2505
    1DPPC   C4B17232  17.399  14.074   4.099  0.1302 -0.0343 -0.0266
    1DPPC   NC317233  13.614  11.814   2.727  0.2762 -0.0087 -0.0110
    1DPPC   PO417234  13.598  11.425   2.795 -0.0173 -0.0571 -0.0513
    1DPPC   GL117235  13.613  11.184   3.252  0.3751  0.0777  0.1992
    1DPPC   GL217236  13.598  10.878   3.361 -0.1944 -0.1564 -0.0200
    1DPPC   C1A17237  13.606  11.214   3.712  0.0623  0.0520  0.0936
    1DPPC   C2A17238  13.524  11.305   4.189 -0.1510 -0.0220 -0.1574
    1DPPC   C3A17239  13.515  11.380   4.655  0.1772  0.0699  0.0657
    1DPPC   C4A17240  13.566  11.538   5.091 -0.1283 -0.1387  0.0516
    1DPPC   C1B17241  13.778  10.745   3.738 -0.2354 -0.0785  0.2271
    1DPPC   C2B17242  13.868  10.969   4.092  0.1697 -0.4515 -0.2284
    1DPPC   C3B17243  14.065  10.998   4.487 -0.0883 -0.1163 -0.0275
    1DPPC   C4B17244  14.186  11.150   4.787 -0.3489 -0.2967  0.1604
    1DPPC   NC317245  19.935  17.612   2.669  0.2064  0.1659  0.1346
    1DPPC   PO417246  20.211  17.965   2.952  0.0748 -0.2123  0.0316
    1DPPC   GL117247  20.371  17.744   3.291 -0.1365 -0.0058 -0.2391
    1DPPC   GL217248  20.074  17.488   3.291 -0.3236 -0.0104  0.1135
    1DPPC   C1A17249  20.302  17.663   3.718 -0.1002 -0.0312  0.2114
    1DPPC   C2A17250  20.305  17.688   4.092 -0.0011  0.1505  0.4243
    1DPPC   C3A17251  20.174  17.697   4.562 -0.0575  0.2722  0.1056
    1DPPC   C4A17252  20.211  17.974   4.891  0.0162  0.0745 -0.1515
    1DPPC   C1B17253  19.887  17.489   3.711  0.2557  0.1322  0.1018
    1DPPC   C2B17254  19.860  17.572   4.125  0.1571 -0.3011  0.2037
    1DPPC   C3B17255  19.691  17.568   4.553 -0.2121  0.1005 -0.1722
    1DPPC   C4B17256  19.933  17.522   5.020  0.2621  0.3228 -0.0252
    1DPPC   NC317257  14.103  16.017   2.201  0.0563 -0.0151  0.1050
    1DPPC   PO417258  13.824  16.286   2.415 -0.0392 -0.0755 -0.1640
    1DPPC   GL117259  13.775  16.274   2.835 -0.3441  0.3734 -0.2010
    1DPPC   GL217260  13.846  16.010   3.022 -0.3387 -0.1426  0.0229
    1DPPC   C1A17261  13.605  16.353   3.278  0.1183  0.1184  0.0226
    1DPPC   C2A17262  13.702  16.380   3.691  0.1557  0.0864  0.2953
    1DPPC   C3A17263  13.749  16.318   4.109  0.1443  0.1188  0.0819
    1DPPC   C4A17264  13.695  16.358   4.567 -0.0067  0.1409 -0.0550
    1DPPC   C1B17265  14.022  16.070   3.405  0.1320  0.0956  0.1551
    1DPPC   C2B17266  14.115  16.049   3.814  0.4099 -0.0381 -0.1035
    1DPPC   C3B17267  14.062  15.879   4.214  0.1963 -0.0752 -0.1637
    1DPPC   C4B17268  14.018  15.632   4.603 -0.0557 -0.0711  0.0219
    1DPPC   NC317269  16.800  19.554   2.704  0.0963 -0.0868  0.2465
    1DPPC   PO417270  16.537  19.863   2.884 -0.1002 -0.0822  0.1932
    1DPPC   GL117271  16.396  19.866   3.328 -0.2398  0.0614  0.0225
    1DPPC   GL217272  16.538  20.023   3.463  0.0184 -0.1160  0.2715
    1DPPC   C1A17273  16.300  19.633   3.755 -0.2311 -0.2651 -0.2204
    1DPPC   C2A17274  16.416  19.682   4.167  0.0277 -0.0206 -0.1544
    1DPPC   C3A17275  16.438  19.564   4.597 -0.1593 -0.3346  0.2859
    1DPPC   C4A17276  16.641  19.703   4.975 -0.0407 -0.1481 -0.1319
    1DPPC   C1B17277  16.760  19.902   3.830  0.1572  0.1246 -0.0301
    1DPPC   C2B17278  16.895  20.039   4.149  0.0003 -0.0703 -0.1651
    1DPPC   C3B17279  16.793  20.018   4.479 -0.1207  0.3234 -0.1010
    1DPPC   C4B17280  16.666  20.354   4.715 -0.1059  0.1613  0.0628
    1DPPC   NC317281  25.261  21.142   3.386 -0.1096 -0.3858  0.2296
    1DPPC   PO417282  25.610  21.082   3.559 -0.0523  0.1214 -0.2075
    1DPPC   GL117283  25.331  21.043   3.909 -0.4693 -0.1256  0.1202
    1DPPC   GL217284  25.706  21.200   4.039  0.1099 -0.0415 -0.0828
    1DPPC   C1A17285  24.781  20.972   3.944 -0.1196 -0.0699  0.2649
    1DPPC   C2A17286  24.337  21.075   4.041 -0.0876 -0.0560  0.0217
    1DPPC   C3A17287  23.993  21.337   4.118  0.2161 -0.1166  0.2873
    1DPPC   C4A17288  23.851  21.699   4.366 -0.3695  0.0720 -0.0549
    1DPPC   C1B17289  25.868  21.588   4.116 -0.3775 -0.1291  0.0506
    1DPPC   C2B17290  26.094  21.799   4.408  0.0107  0.2751 -0.0903
    1DPPC   C3B17291  26.227  21.807   4.771 -0.1775 -0.3180 -0.1344
    1DPPC   C4B17292  26.029  21.791   5.231  0.0803 -0.1607 -0.3988
    1DPPC   NC317293  15.063   6.918   2.821  0.2151  0.0381  0.0731
    1DPPC   PO417294  14.981   6.957   3.281  0.1810  0.0812  0.2208
    1DPPC   GL117295  14.935   7.002   3.782  0.0883 -0.1826  0.1225
    1DPPC   GL217296  14.684   7.034   3.944 -0.1154 -0.1774 -0.5363
    1DPPC   C1A17297  15.219   7.294   4.135 -0.0479 -0.0099  0.2772
    1DPPC   C2A17298  15.302   7.471   4.596  0.1291 -0.1567 -0.1265
    1DPPC   C3A17299  15.445   7.515   5.062  0.1262  0.0514 -0.2804
    1DPPC   C4A17300  15.288   7.774   5.309  0.1145  0.0144 -0.0657
    1DPPC   C1B17301  14.563   7.070   4.395  0.2319 -0.1303  0.2778
    1DPPC   C2B17302  14.717   7.112   4.811 -0.1385  0.2318  0.1994
    1DPPC   C3B17303  14.920   7.360   5.038 -0.1644 -0.0234 -0.0413
    1DPPC   C4B17304  15.104   7.312   5.397 -0.0933  0.2368  0.2345
    1DPPC   NC317305  12.769   8.130   3.473  0.1276  0.0051  0.0698
    1DPPC   PO417306  13.161   7.963   3.551  0.2131  0.2797  0.1435
    1DPPC   GL117307  13.529   7.983   3.838 -0.2355 -0.0327 -0.2243
    1DPPC   GL217308  13.862   7.934   3.814 -0.2504  0.1214 -0.1597
    1DPPC   C1A17309  13.547   7.992   4.235 -0.0449  0.1359 -0.1118
    1DPPC   C2A17310  13.630   8.171   4.618  0.0027 -0.0977 -0.1807
    1DPPC   C3A17311  13.816   8.249   4.957  0.2013 -0.1239  0.0252
    1DPPC   C4A17312  13.602   8.523   5.265  0.1135 -0.3133 -0.1576
    1DPPC   C1B17313  14.111   8.021   4.158  0.0463 -0.0883 -0.4911
    1DPPC   C2B17314  14.249   8.078   4.501 -0.2500  0.1418  0.1431
    1DPPC   C3B17315  14.301   8.296   4.939 -0.3131  0.2404 -0.1457
    1DPPC   C4B17316  14.551   8.456   5.168  0.0260  0.0326  0.2274
    1DPPC   NC317317  20.448  16.845   2.816 -0.3249  0.2818  0.1797
    1DPPC   PO417318  20.095  17.060   2.714  0.0484 -0.0099  0.2508
    1DPPC   GL117319  20.092  16.979   3.131 -0.3983 -0.0618 -0.1730
    1DPPC   GL217320  20.350  17.125   3.269  0.2060 -0.0189  0.1482
    1DPPC   C1A17321  19.914  16.958   3.512 -0.0611  0.1282  0.2057
    1DPPC   C2A17322  19.902  16.913   3.981 -0.2360  0.1815  0.1593
    1DPPC   C3A17323  19.812  17.080   4.368  0.2696 -0.0059  0.0074
    1DPPC   C4A17324  19.994  17.197   4.640  0.2152  0.1468  0.3224
    1DPPC   C1B17325  20.265  17.187   3.764  0.0452  0.1988  0.0084
    1DPPC   C2B17326  20.319  17.146   4.134 -0.1386  0.1280 -0.0793
    1DPPC   C3B17327  20.261  16.870   4.430 -0.0260 -0.2212  0.2711
    1DPPC   C4B17328  20.013  16.677   4.719  0.2245 -0.1675 -0.2874
    1DIPC   NC317329  18.015   4.401   2.988 -0.0825  0.1493 -0.0103
    1DIPC   PO417330  17.964   4.715   3.316  0.1408 -0.0231  0.1405
    1DIPC   GL117331  18.282   4.876   3.701  0.0090  0.3873 -0.1330
    1DIPC   GL217332  18.038   5.118   3.889  0.2421 -0.2183  0.1478
    1DIPC   C1A17333  18.488   4.929   4.112 -0.0113 -0.0579 -0.0364
    1DIPC   D2A17334  18.797   5.129   4.316  0.0144  0.0772 -0.1673
    1DIPC   D3A17335  18.826   5.355   4.759 -0.0568 -0.2016 -0.0492
    1DIPC   C4A17336  18.881   5.578   5.127 -0.0981  0.0132 -0.2183
    1DIPC   C1B17337  17.932   4.669   4.051 -0.0751  0.3690 -0.0227
    1DIPC   D2B17338  17.627   4.433   4.034  0.0996  0.2276 -0.1563
    1DIPC   D3B17339  17.575   4.553   4.502 -0.0526 -0.2402  0.0274
    1DIPC   C4B17340  17.579   4.992   4.633 -0.0322 -0.0428  0.1498
    1DIPC   NC317341  23.740  26.195   2.955  0.0271 -0.0503 -0.2301
    1DIPC   PO417342  23.556  25.711   3.140 -0.3721  0.4463  0.2769
    1DIPC   GL117343  23.733  25.768   3.487 -0.0177 -0.3170  0.1076
    1DIPC   GL217344  23.501  25.632   3.688  0.2400 -0.0541  0.1410
    1DIPC   C1A17345  23.957  25.595   3.779 -0.1619 -0.0811  0.2052
    1DIPC   D2A17346  24.133  25.673   4.084 -0.0448  0.1828 -0.1348
    1DIPC   D3A17347  23.754  25.889   4.363  0.1094 -0.2625 -0.3607
    1DIPC   C4A17348  23.761  25.767   4.804  0.1994 -0.2679  0.0003
    1DIPC   C1B17349  23.645  26.078   3.906 -0.0171  0.0367 -0.1907
    1DIPC   D2B17350  24.131  26.181   4.122 -0.1353 -0.0028  0.1865
    1DIPC   D3B17351  23.951  26.350   4.421  0.0107  0.2543  0.1510
    1DIPC   C4B17352  24.074  26.823   4.276 -0.1482  0.1419  0.0257
    1DIPC   NC317353  14.414  23.207   3.690  0.2139  0.1230 -0.0790
    1DIPC   PO417354  14.191  23.541   3.678  0.0144 -0.1300 -0.0856
    1DIPC   GL117355  14.479  23.615   3.994 -0.0568 -0.1870 -0.0002
    1DIPC   GL217356  14.754  23.608   3.936  0.2459 -0.0973 -0.0033
    1DIPC   C1A17357  14.657  23.756   4.432 -0.0593 -0.3904 -0.0923
    1DIPC   D2A17358  14.733  24.283   4.516 -0.1702 -0.1532 -0.0778
    1DIPC   D3A17359  14.722  24.135   4.875  0.3849 -0.0173  0.0578
    1DIPC   C4A17360  14.428  23.823   4.908 -0.1851  0.0612  0.1489
    1DIPC   C1B17361  15.032  23.468   4.238 -0.1092  0.2545 -0.1271
    1DIPC   D2B17362  15.371  23.378   4.515 -0.1110 -0.1642  0.0985
    1DIPC   D3B17363  15.516  23.547   4.769  0.0910 -0.4099  0.1358
    1DIPC   C4B17364  16.018  23.546   4.845  0.1918 -0.0590 -0.0123
    1DIPC   NC317365  29.295   4.308   2.224 -0.0108 -0.0730  0.3367
    1DIPC   PO417366  29.516   4.164   2.616 -0.3598 -0.1048  0.0128
    1DIPC   GL117367  29.380   4.169   3.038  0.3280 -0.0557  0.1945
    1DIPC   GL217368  29.422   3.877   3.128 -0.0260  0.1021 -0.2606
    1DIPC   C1A17369  29.264   4.503   3.252  0.1477  0.0669 -0.1269
    1DIPC   D2A17370  29.359   4.609   3.638  0.0846  0.0549 -0.2405
    1DIPC   D3A17371  29.074   4.500   3.880  0.1304 -0.0591  0.0340
    1DIPC   C4A17372  29.110   4.055   3.995  0.1718 -0.3018 -0.3091
    1DIPC   C1B17373  29.307   3.973   3.517  0.0013  0.4049 -0.3939
    1DIPC   D2B17374  29.547   4.238   3.846 -0.1843 -0.1730  0.0190
    1DIPC   D3B17375  29.784   4.557   4.038 -0.0239  0.1818 -0.3702
    1DIPC   C4B17376  30.150   4.629   3.954  0.4016  0.0622  0.1602
    1DIPC   NC317377  16.351  25.414   3.323  0.0238 -0.0217 -0.0071
    1DIPC   PO417378  16.548  25.767   3.427 -0.0257  0.1522  0.0972
    1DIPC   GL117379  16.369  25.764   3.756  0.1036 -0.1055 -0.3519
    1DIPC   GL217380  16.306  25.514   3.906  0.2244  0.0887  0.0280
    1DIPC   C1A17381  16.349  25.895   4.213  0.2165  0.1159  0.0863
    1DIPC   D2A17382  16.280  25.897   4.631 -0.0641 -0.1324  0.1197
    1DIPC   D3A17383  16.295  25.919   5.109  0.1051 -0.2264  0.0761
    1DIPC   C4A17384  16.642  26.089   5.374 -0.1503  0.2714  0.1857
    1DIPC   C1B17385  16.146  25.424   4.353 -0.2016 -0.0879  0.1449
    1DIPC   D2B17386  16.110  25.462   4.823  0.1461  0.0482  0.0987
    1DIPC   D3B17387  15.735  25.647   4.609  0.1385 -0.0325  0.0235
    1DIPC   C4B17388  15.524  26.061   4.819 -0.1038 -0.1563  0.2676
    1DIPC   NC317389  28.925  11.206   2.785  0.2646 -0.3457  0.1259
    1DIPC   PO417390  29.018  11.555   2.682 -0.0532 -0.2936 -0.0812
    1DIPC   GL117391  28.965  11.628   3.167  0.1911 -0.0850  0.1496
    1DIPC   GL217392  29.145  11.593   3.325 -0.0937 -0.2116 -0.0219
    1DIPC   C1A17393  28.857  11.968   3.454  0.5899  0.0836  0.1505
    1DIPC   D2A17394  29.051  12.111   3.806  0.0895  0.1620  0.1169
    1DIPC   D3A17395  28.672  11.953   3.930  0.2036  0.1648 -0.0403
    1DIPC   C4A17396  28.684  11.361   3.886  0.2084  0.1516  0.0458
    1DIPC   C1B17397  29.202  11.602   3.760 -0.0636  0.1872  0.0294
    1DIPC   D2B17398  29.077  11.787   4.200  0.2475  0.0066  0.1885
    1DIPC   D3B17399  29.278  12.054   4.377 -0.0952  0.1314 -0.1327
    1DIPC   C4B17400  28.960  12.336   4.511 -0.2629 -0.2057 -0.1902
    1DIPC   NC317401  26.601  18.744   2.583  0.1952 -0.1233  0.0258
    1DIPC   PO417402  26.556  18.430   2.933  0.1229 -0.1343  0.0177
    1DIPC   GL117403  26.708  18.647   3.173 -0.1192  0.2447 -0.1186
    1DIPC   GL217404  26.509  18.464   3.451 -0.1333 -0.2030 -0.2539
    1DIPC   C1A17405  27.089  18.818   3.408  0.4296  0.0341  0.1671
    1DIPC   D2A17406  27.331  18.916   3.783 -0.5126 -0.2723 -0.1918
    1DIPC   D3A17407  27.143  18.618   4.075  0.0089 -0.1385 -0.0523
    1DIPC   C4A17408  27.054  18.137   4.118 -0.0873 -0.1998  0.2103
    1DIPC   C1B17409  26.479  18.193   3.920 -0.1301 -0.3795 -0.0513
    1DIPC   D2B17410  26.405  18.285   4.401  0.1006 -0.1452  0.0244
    1DIPC   D3B17411  26.276  17.845   4.469 -0.0328  0.2140 -0.1351
    1DIPC   C4B17412  26.148  17.450   4.721 -0.1123 -0.3083 -0.0528
    1DIPC   NC317413  13.230  28.551   4.441 -0.1562  0.0184  0.0099
    1DIPC   PO417414  13.624  28.364   4.474 -0.1060 -0.2591  0.0026
    1DIPC   GL117415  13.578  28.486   4.885 -0.1975 -0.0287 -0.2558
    1DIPC   GL217416  13.287  28.546   4.976 -0.0816 -0.1329  0.2537
    1DIPC   C1A17417  13.576  28.488   5.399  0.1124 -0.1507  0.1705
    1DIPC   D2A17418  13.807  28.312   5.717  0.0289  0.1312 -0.1522
    1DIPC   D3A17419  13.759  28.168   6.206 -0.2298 -0.2345 -0.1954
    1DIPC   C4A17420  13.585  28.397   6.357 -0.0381 -0.0475  0.1517
    1DIPC   C1B17421  13.071  28.461   5.308 -0.0467 -0.0016  0.1162
    1DIPC   D2B17422  12.791  28.373   5.600  0.2790 -0.0062  0.0032
    1DIPC   D3B17423  12.597  27.969   5.810  0.0252  0.2334 -0.1148
    1DIPC   C4B17424  12.903  27.832   5.968  0.1004  0.0398  0.0137
    1DIPC   NC317425  26.083  14.849   2.356 -0.1545  0.3859  0.4314
    1DIPC   PO417426  26.217  14.491   2.245  0.2214 -0.0891  0.3104
    1DIPC   GL117427  25.936  14.309   2.500 -0.1539 -0.2353 -0.0216
    1DIPC   GL217428  25.911  13.996   2.377  0.2480 -0.0926 -0.1133
    1DIPC   C1A17429  25.639  14.184   2.897  0.2169  0.0653  0.1424
    1DIPC   D2A17430  25.647  13.989   3.405  0.0809  0.1059  0.2508
    1DIPC   D3A17431  25.648  14.325   3.591  0.1048 -0.1143  0.3505
    1DIPC   C4A17432  26.107  14.612   3.588 -0.0627 -0.3019 -0.0829
    1DIPC   C1B17433  26.165  13.759   2.636  0.0655  0.0929  0.1252
    1DIPC   D2B17434  26.236  13.416   2.777 -0.2890  0.0179 -0.3662
    1DIPC   D3B17435  26.166  13.261   3.209 -0.0672 -0.0311 -0.0067
    1DIPC   C4B17436  26.483  13.393   3.546  0.2945  0.0912  0.2046
    1DIPC   NC317437   2.032  26.376   2.972  0.2833  0.1076 -0.2004
    1DIPC   PO417438   2.065  26.016   3.135  0.0145 -0.1993  0.1713
    1DIPC   GL117439   1.785  25.956   3.493 -0.1269 -0.3205 -0.1892
    1DIPC   GL217440   1.836  25.675   3.528 -0.1340  0.3177 -0.1866
    1DIPC   C1A17441   1.708  25.873   3.957  0.0755 -0.0298 -0.1907
    1DIPC   D2A17442   1.955  25.697   4.320 -0.0273  0.0344  0.1166
    1DIPC   D3A17443   1.787  26.024   4.444  0.2617  0.2963  0.0406
    1DIPC   C4A17444   2.144  26.215   4.639 -0.0174 -0.0058  0.2868
    1DIPC   C1B17445   1.665  25.335   3.702  0.3579  0.1586 -0.2041
    1DIPC   D2B17446   1.586  25.146   3.974  0.3853  0.0673 -0.5579
    1DIPC   D3B17447   1.205  25.290   4.149 -0.1865  0.2769  0.3396
    1DIPC   C4B17448   0.906  25.107   4.460 -0.1251  0.0074 -0.0359
    1DIPC   NC317449   1.160  28.457   2.852  0.1944  0.0004  0.1864
    1DIPC   PO417450   0.636  28.520   2.929 -0.0028 -0.3071  0.2869
    1DIPC   GL117451   0.373  28.511   3.375 -0.2736  0.1465 -0.3116
    1DIPC   GL217452   0.142  28.362   3.553 -0.0490 -0.2820  0.1424
    1DIPC   C1A17453   0.645  28.328   3.800  0.0730  0.0295  0.0221
    1DIPC   D2A17454   0.520  28.014   3.919  0.3516  0.0338 -0.0332
    1DIPC   D3A17455   0.806  28.089   4.270 -0.2385  0.0088 -0.0617
    1DIPC   C4A17456   1.018  28.019   4.674 -0.0039  0.0470 -0.3686
    1DIPC   C1B17457   0.198  28.378   4.019 -0.0908 -0.2832 -0.1731
    1DIPC   D2B17458   0.502  28.491   4.235  0.0537  0.0674 -0.2550
    1DIPC   D3B17459   0.299  28.154   4.454  0.0505 -0.4798  0.0159
    1DIPC   C4B17460   0.573  27.771   4.578  0.1193 -0.0629 -0.0408
    1DIPC   NC317461   8.078  23.045   2.527  0.0347  0.1505  0.1471
    1DIPC   PO417462   8.195  22.667   2.624  0.2436  0.1510  0.0805
    1DIPC   GL117463   8.330  22.733   3.022 -0.1825 -0.2387  0.1037
    1DIPC   GL217464   8.233  22.569   3.292 -0.0466 -0.0112 -0.0259
    1DIPC   C1A17465   8.529  22.958   3.336 -0.1270 -0.0172 -0.0768
    1DIPC   D2A17466   8.360  23.210   3.586 -0.0073 -0.2044  0.0077
    1DIPC   D3A17467   8.513  23.550   3.559 -0.1643  0.3417 -0.2478
    1DIPC   C4A17468   8.902  23.659   3.631 -0.0530 -0.0429  0.0823
    1DIPC   C1B17469   8.386  22.685   3.706  0.3773  0.3649  0.0181
    1DIPC   D2B17470   8.444  22.968   4.035  0.0645  0.1893 -0.1291
    1DIPC   D3B17471   8.662  22.898   4.407  0.0181  0.1240 -0.1219
    1DIPC   C4B17472   9.132  22.763   4.330  0.0196  0.0520  0.0590
    1DIPC   NC317473   1.731   4.606   2.192 -0.1919 -0.2139  0.2559
    1DIPC   PO417474   1.332   4.587   2.420 -0.1821  0.1400  0.2226
    1DIPC   GL117475   1.679   4.725   2.679 -0.5656  0.1765 -0.0552
    1DIPC   GL217476   1.509   4.936   2.932 -0.4013 -0.1837 -0.2224
    1DIPC   C1A17477   1.881   4.672   3.033 -0.2860 -0.0083 -0.2899
    1DIPC   D2A17478   1.934   4.934   3.443  0.2195  0.2102 -0.0593
    1DIPC   D3A17479   1.676   5.322   3.463  0.1322  0.1373  0.0413
    1DIPC   C4A17480   1.246   5.337   3.674  0.0214 -0.3046  0.4720
    1DIPC   C1B17481   1.878   5.331   3.064 -0.0899 -0.0380 -0.0425
    1DIPC   D2B17482   2.255   5.641   3.000  0.2029 -0.0598 -0.0544
    1DIPC   D3B17483   2.207   5.893   3.239 -0.0958 -0.0461  0.1420
    1DIPC   C4B17484   1.973   5.711   3.520  0.2711 -0.1196 -0.3389
    1DIPC   NC317485   8.498   4.089   2.766  0.0405 -0.1669  0.0316
    1DIPC   PO417486   8.120   4.170   3.107  0.0401  0.2571 -0.0423
    1DIPC   GL117487   8.079   4.049   3.509 -0.1796  0.0430 -0.0809
    1DIPC   GL217488   7.833   3.919   3.753  0.1278 -0.1724  0.4661
    1DIPC   C1A17489   8.250   4.175   3.907  0.1852  0.1964  0.0435
    1DIPC   D2A17490   8.367   4.401   4.274  0.2862 -0.0558 -0.1004
    1DIPC   D3A17491   8.169   4.700   4.571 -0.0291  0.1586 -0.0361
    1DIPC   C4A17492   7.714   4.578   4.744 -0.1942 -0.1888 -0.2272
    1DIPC   C1B17493   8.044   3.581   3.940  0.0191 -0.4427 -0.0389
    1DIPC   D2B17494   8.225   3.231   4.058  0.1095  0.0301 -0.0276
    1DIPC   D3B17495   8.152   2.821   4.201 -0.3185  0.1996 -0.1590
    1DIPC   C4B17496   7.827   2.923   4.404 -0.0184  0.0614  0.2255
    1DIPC   NC317497  25.231   8.544   2.432 -0.1455 -0.0151 -0.3576
    1DIPC   PO417498  24.852   8.505   2.677 -0.1521 -0.0551 -0.1621
    1DIPC   GL117499  24.763   8.579   3.031  0.0670 -0.1214 -0.2430
    1DIPC   GL217500  24.830   8.842   3.079 -0.0835 -0.3451 -0.2272
    1DIPC   C1A17501  24.541   8.527   3.415 -0.4512 -0.1044 -0.0156
    1DIPC   D2A17502  24.710   8.497   3.871  0.5996 -0.0948 -0.0859
    1DIPC   D3A17503  24.780   8.221   4.058 -0.3112 -0.0067  0.3539
    1DIPC   C4A17504  24.907   8.420   4.446  0.0683 -0.0925  0.1641
    1DIPC   C1B17505  24.590   9.038   3.424 -0.1263 -0.0464  0.2718
    1DIPC   D2B17506  24.249   9.305   3.460 -0.2176 -0.0311  0.3478
    1DIPC   D3B17507  24.329   9.717   3.414 -0.4375 -0.1897  0.0159
    1DIPC   C4B17508  24.358  10.002   3.720  0.3584 -0.2004  0.1591
    1DIPC   NC317509  10.922  24.722   2.794  0.1451  0.0198  0.0142
    1DIPC   PO417510  11.152  24.420   2.848 -0.1676 -0.0222 -0.0305
    1DIPC   GL117511  10.802  24.467   3.230  0.1266  0.0523  0.0208
    1DIPC   GL217512  10.442  24.374   3.134 -0.1222 -0.3106  0.2157
    1DIPC   C1A17513  10.619  24.116   3.521 -0.0567  0.0368  0.1005
    1DIPC   D2A17514  10.303  23.955   3.895  0.1598  0.4996 -0.0326
    1DIPC   D3A17515  10.058  24.219   3.669 -0.0020  0.0371  0.0866
    1DIPC   C4A17516   9.858  23.984   3.371  0.1804 -0.1500 -0.0538
    1DIPC   C1B17517  10.031  24.552   3.281 -0.1506  0.2302 -0.0076
    1DIPC   D2B17518   9.584  24.527   3.429  0.0458 -0.1425 -0.1337
    1DIPC   D3B17519   9.654  24.471   3.851 -0.2419 -0.2485 -0.0971
    1DIPC   C4B17520   9.598  24.749   4.172  0.1067 -0.2773  0.0659
    1DIPC   NC317521   9.924  27.638   3.603 -0.0422 -0.2783 -0.2559
    1DIPC   PO417522   9.908  27.155   3.544 -0.2684 -0.2703 -0.3097
    1DIPC   GL117523   9.883  27.091   3.923 -0.0193  0.2935  0.2874
    1DIPC   GL217524   9.950  27.393   4.046  0.3780 -0.0503  0.0111
    1DIPC   C1A17525   9.499  26.953   4.209 -0.0059  0.0562 -0.1817
    1DIPC   D2A17526   9.476  26.683   4.605 -0.3322  0.2369 -0.2653
    1DIPC   D3A17527   9.179  26.830   4.876 -0.2554 -0.0748  0.2085
    1DIPC   C4A17528   8.884  26.667   5.173  0.0232  0.1296  0.1843
    1DIPC   C1B17529   9.612  27.450   4.409  0.0524  0.0077  0.3057
    1DIPC   D2B17530   9.484  27.421   4.874  0.2721 -0.0336 -0.0506
    1DIPC   D3B17531   9.066  27.285   4.977 -0.0281 -0.1522  0.1340
    1DIPC   C4B17532   8.889  27.126   4.574 -0.3312 -0.0809  0.0526
    1DIPC   NC317533   8.247  27.757   3.576 -0.0706  0.1050 -0.3275
    1DIPC   PO417534   8.638  27.889   3.734  0.0258 -0.0597  0.1616
    1DIPC   GL117535   8.748  27.922   4.144  0.1479 -0.0850  0.0086
    1DIPC   GL217536   8.521  28.131   4.225  0.2817 -0.0682  0.2278
    1DIPC   C1A17537   8.534  27.693   4.555 -0.1813  0.1080 -0.0679
    1DIPC   D2A17538   8.549  27.354   4.834  0.1008 -0.2589  0.4454
    1DIPC   D3A17539   8.194  27.177   5.070 -0.1335 -0.0632 -0.2855
    1DIPC   C4A17540   8.208  26.720   5.076  0.5139  0.0224 -0.0718
    1DIPC   C1B17541   8.821  28.238   4.489 -0.1405 -0.4421 -0.0686
    1DIPC   D2B17542   9.153  28.547   4.485  0.1537 -0.3850 -0.0570
    1DIPC   D3B17543   9.617  28.339   4.524 -0.1782 -0.2843 -0.1223
    1DIPC   C4B17544   9.412  27.980   4.825 -0.3433  0.1660 -0.0046
    1DIPC   NC317545  11.180   2.979   2.811  0.0398 -0.1193 -0.0828
    1DIPC   PO417546  10.984   2.720   3.231 -0.1223  0.2246  0.3096
    1DIPC   GL117547  10.778   2.698   3.673  0.1281 -0.0603  0.1609
    1DIPC   GL217548  10.507   2.842   3.763 -0.2757  0.1895  0.0641
    1DIPC   C1A17549  10.905   2.852   4.112 -0.0373 -0.1562 -0.3514
    1DIPC   D2A17550  11.288   2.713   4.310  0.0780 -0.4927 -0.1053
    1DIPC   D3A17551  11.127   2.950   4.669 -0.0920 -0.2146  0.1599
    1DIPC   C4A17552  10.803   3.270   4.745 -0.0550 -0.0997 -0.0935
    1DIPC   C1B17553  10.392   2.599   4.093 -0.1233 -0.1299 -0.4354
    1DIPC   D2B17554  10.400   2.731   4.451  0.1350 -0.2331 -0.0915
    1DIPC   D3B17555  10.582   2.794   4.854  0.1660  0.0959  0.1948
    1DIPC   C4B17556  10.284   2.921   5.220  0.2445  0.0682  0.2089
    1DIPC   NC317557  24.917  21.148   2.970 -0.1075  0.0832 -0.1007
    1DIPC   PO417558  25.031  21.525   3.160 -0.0151 -0.2707  0.0130
    1DIPC   GL117559  25.274  21.609   3.547 -0.0999  0.4759  0.0492
    1DIPC   GL217560  24.955  21.559   3.737  0.1152 -0.0812  0.1230
    1DIPC   C1A17561  25.391  21.617   3.993  0.0785  0.1730  0.1571
    1DIPC   D2A17562  25.290  21.462   4.371  0.0309 -0.0708  0.0420
    1DIPC   D3A17563  25.628  21.626   4.599 -0.0871  0.0139 -0.1441
    1DIPC   C4A17564  25.883  21.440   4.945 -0.4520  0.1716 -0.0175
    1DIPC   C1B17565  24.823  21.463   4.193  0.2198  0.1050 -0.0860
    1DIPC   D2B17566  24.862  21.185   4.448 -0.2965  0.1195  0.2533
    1DIPC   D3B17567  24.762  21.450   4.697 -0.1098  0.0855 -0.1746
    1DIPC   C4B17568  24.401  21.621   4.414 -0.1907  0.0279 -0.1675
    1DIPC   NC317569   8.493  12.012   2.669 -0.0376  0.2721  0.1439
    1DIPC   PO417570   8.213  11.655   2.660 -0.0296 -0.1383  0.0862
    1DIPC   GL117571   8.198  11.924   3.071  0.1963 -0.2936  0.1006
    1DIPC   GL217572   8.231  12.314   3.091 -0.0058  0.2419  0.2210
    1DIPC   C1A17573   8.172  12.026   3.480  0.0629 -0.1330  0.0131
    1DIPC   D2A17574   8.259  12.153   3.951  0.0218  0.0616  0.3616
    1DIPC   D3A17575   7.813  12.172   3.760 -0.1458  0.2097 -0.2035
    1DIPC   C4A17576   7.726  12.527   3.440 -0.1164  0.0618  0.0457
    1DIPC   C1B17577   8.256  12.529   3.503  0.0399  0.1767  0.1545
    1DIPC   D2B17578   8.026  12.891   3.748 -0.1318  0.3337 -0.0050
    1DIPC   D3B17579   8.052  13.074   4.209  0.0473 -0.0332  0.2913
    1DIPC   C4B17580   8.123  13.322   4.583 -0.2158  0.1785 -0.0338
    1DIPC   NC317581   7.220   8.383   2.729  0.1152  0.2368  0.0258
    1DIPC   PO417582   7.032   8.790   2.928 -0.4299 -0.1725  0.0225
    1DIPC   GL117583   7.095   8.860   3.321  0.1083 -0.0570  0.1926
    1DIPC   GL217584   7.187   9.182   3.352  0.2637 -0.1819  0.0583
    1DIPC   C1A17585   7.241   8.790   3.685 -0.1463  0.1589  0.0538
    1DIPC   D2A17586   7.249   8.800   4.071  0.0959  0.2379 -0.1754
    1DIPC   D3A17587   7.555   9.035   4.282 -0.1292  0.0822  0.5712
    1DIPC   C4A17588   7.599   9.560   4.235 -0.0087  0.3748 -0.0138
    1DIPC   C1B17589   6.848   9.074   3.761 -0.0143 -0.2789  0.1194
    1DIPC   D2B17590   6.400   9.030   3.729 -0.3046  0.1145  0.0569
    1DIPC   D3B17591   6.047   9.140   3.834 -0.2086  0.2001  0.3345
    1DIPC   C4B17592   5.827   8.959   4.198  0.0241  0.2584  0.3001
    1DIPC   NC317593  28.503  27.854   2.782  0.0466 -0.0264 -0.0025
    1DIPC   PO417594  28.358  27.504   3.082  0.0095 -0.0139  0.2328
    1DIPC   GL117595  28.247  27.640   3.592 -0.2161  0.0941  0.5812
    1DIPC   GL217596  28.459  27.870   3.692  0.0901  0.2093  0.2863
    1DIPC   C1A17597  27.889  27.749   3.863  0.1200 -0.0902  0.1978
    1DIPC   D2A17598  27.527  28.051   3.711  0.1700  0.2980 -0.0091
    1DIPC   D3A17599  27.620  28.444   3.968  0.4072  0.2647 -0.1220
    1DIPC   C4A17600  27.574  28.561   4.398  0.1228 -0.0967  0.1492
    1DIPC   C1B17601  28.378  27.840   4.039  0.3522  0.3464 -0.1220
    1DIPC   D2B17602  28.233  27.502   4.268 -0.1267 -0.2454  0.2471
    1DIPC   D3B17603  28.151  27.842   4.484 -0.2091 -0.2414 -0.1639
    1DIPC   C4B17604  27.772  28.008   4.307  0.0723  0.0983  0.1216
    1DIPC   NC317605  24.047  24.119   3.242  0.1932 -0.2372  0.0076
    1DIPC   PO417606  24.446  24.114   3.238 -0.3413  0.0851 -0.1390
    1DIPC   GL117607  24.231  24.098   3.687 -0.1251 -0.0822  0.0144
    1DIPC   GL217608  24.193  24.337   3.838 -0.1305 -0.0060 -0.0606
    1DIPC   C1A17609  23.741  24.067   3.827  0.0654  0.0049 -0.1462
    1DIPC   D2A17610  23.467  24.256   4.093  0.1432  0.1277 -0.0378
    1DIPC   D3A17611  23.816  24.437   4.297  0.0032 -0.3232  0.0201
    1DIPC   C4A17612  24.139  24.725   4.118 -0.1940 -0.0687 -0.0252
    1DIPC   C1B17613  24.254  24.275   4.247  0.0585 -0.1111  0.1474
    1DIPC   D2B17614  24.393  24.537   4.602 -0.1610  0.0321  0.1571
    1DIPC   D3B17615  24.044  24.779   4.634  0.3362 -0.0141 -0.2014
    1DIPC   C4B17616  23.543  24.805   4.624  0.3578  0.3397 -0.1360
    1DIPC   NC317617   9.944  20.288   1.969  0.0807  0.1869 -0.2477
    1DIPC   PO417618   9.545  20.083   2.157  0.0933  0.3382 -0.0059
    1DIPC   GL117619   9.578  20.256   2.469  0.1455 -0.0993  0.0275
    1DIPC   GL217620   9.867  20.171   2.676  0.2108 -0.2198  0.0134
    1DIPC   C1A17621   9.424  20.515   2.742  0.2325  0.2837 -0.0706
    1DIPC   D2A17622   9.436  20.903   2.954 -0.0366  0.2594  0.2088
    1DIPC   D3A17623   9.601  20.833   3.428  0.0302 -0.4186 -0.4199
    1DIPC   C4A17624   9.461  21.020   3.878 -0.0684 -0.1741  0.3023
    1DIPC   C1B17625   9.703  19.781   2.906  0.3357 -0.1766  0.0601
    1DIPC   D2B17626   9.647  19.402   2.861  0.0925  0.1535  0.3928
    1DIPC   D3B17627  10.025  19.108   2.944 -0.0562  0.3953 -0.2526
    1DIPC   C4B17628  10.134  18.588   2.976 -0.1060 -0.0845  0.1251
    1DIPC   NC317629  23.652  22.500   3.176 -0.0847 -0.1052 -0.2234
    1DIPC   PO417630  23.496  22.403   3.580 -0.1248 -0.0209  0.1250
    1DIPC   GL117631  23.715  22.491   3.802  0.0377  0.0660  0.3126
    1DIPC   GL217632  23.649  22.345   4.180 -0.3122  0.1688  0.3165
    1DIPC   C1A17633  23.849  22.904   4.082  0.0781  0.1158 -0.2274
    1DIPC   D2A17634  24.257  22.941   3.944  0.1426  0.0646 -0.0737
    1DIPC   D3A17635  24.702  23.028   4.061 -0.1330 -0.1201 -0.2985
    1DIPC   C4A17636  24.970  22.840   4.201  0.1594  0.0236 -0.1321
    1DIPC   C1B17637  23.696  22.644   4.505  0.0082 -0.0445  0.1828
    1DIPC   D2B17638  23.757  22.927   4.983 -0.4127 -0.0382 -0.0670
    1DIPC   D3B17639  24.160  23.086   4.989 -0.2926  0.1895 -0.1690
    1DIPC   C4B17640  24.317  23.173   5.442  0.3689  0.0890  0.0060
    1DIPC   NC317641  10.186  14.599   2.104  0.1130  0.4217 -0.0560
    1DIPC   PO417642   9.910  14.890   2.318  0.0637 -0.1028  0.2422
    1DIPC   GL117643   9.691  14.824   2.662  0.1674  0.0125 -0.0604
    1DIPC   GL217644   9.788  15.052   2.895  0.3037  0.1422 -0.2394
    1DIPC   C1A17645   9.364  14.692   2.940 -0.2421 -0.1261 -0.1004
    1DIPC   D2A17646   9.241  14.821   3.363  0.3279  0.4126 -0.0614
    1DIPC   D3A17647   9.102  15.287   3.208 -0.1069  0.1012 -0.0020
    1DIPC   C4A17648   9.347  15.338   2.882  0.0789  0.3736  0.0542
    1DIPC   C1B17649   9.687  15.060   3.300  0.1584 -0.0002 -0.3903
    1DIPC   D2B17650   9.517  15.447   3.367  0.2090  0.3205  0.0607
    1DIPC   D3B17651   9.823  15.619   3.070  0.0081 -0.0817 -0.1858
    1DIPC   C4B17652   9.971  16.018   3.220 -0.0915 -0.3904 -0.2898
    1DIPC   NC317653  27.510   4.814   2.456  0.0127  0.0520 -0.0685
    1DIPC   PO417654  27.070   4.808   2.579 -0.4433  0.0054 -0.2944
    1DIPC   GL117655  26.891   4.926   2.992  0.0736  0.0552 -0.1492
    1DIPC   GL217656  27.004   5.260   2.943  0.2306  0.0308  0.0437
    1DIPC   C1A17657  26.782   5.031   3.343 -0.0031 -0.1585  0.1859
    1DIPC   D2A17658  26.987   5.070   3.733 -0.2858 -0.0112  0.1162
    1DIPC   D3A17659  26.590   4.978   4.015 -0.3926 -0.3271 -0.1493
    1DIPC   C4A17660  26.692   5.116   4.486 -0.2177 -0.1898 -0.0577
    1DIPC   C1B17661  27.235   5.348   3.346  0.3371  0.0777 -0.2077
    1DIPC   D2B17662  27.309   5.502   3.747 -0.0995  0.1755 -0.0311
    1DIPC   D3B17663  27.507   5.892   3.946  0.3287  0.1330 -0.0597
    1DIPC   C4B17664  27.871   5.873   4.025 -0.0054 -0.2929  0.1293
    1DIPC   NC317665  22.100   4.686   2.493 -0.2508  0.1346 -0.2903
    1DIPC   PO417666  22.463   4.797   2.783 -0.0139  0.1654 -0.1002
    1DIPC   GL117667  22.906   4.548   2.887  0.1272  0.3115  0.1321
    1DIPC   GL217668  22.848   4.297   3.068  0.0663  0.0359 -0.1126
    1DIPC   C1A17669  23.278   4.543   3.234 -0.0166 -0.0121 -0.1899
    1DIPC   D2A17670  23.464   4.557   3.622  0.3640 -0.1044 -0.1748
    1DIPC   D3A17671  23.238   4.948   3.598  0.0804  0.0135 -0.0237
    1DIPC   C4A17672  23.375   5.406   3.552  0.1081  0.0979 -0.2810
    1DIPC   C1B17673  22.837   4.106   3.503  0.0332 -0.0591  0.0067
    1DIPC   D2B17674  22.593   4.152   3.822 -0.0528  0.1306 -0.0608
    1DIPC   D3B17675  22.177   3.950   3.861 -0.0408  0.1158  0.0310
    1DIPC   C4B17676  22.124   3.662   4.213  0.1028 -0.0500  0.1609
    1DIPC   NC317677  12.699  26.475   3.978 -0.1134 -0.0889 -0.1005
    1DIPC   PO417678  12.341  26.597   3.844 -0.0011  0.0954 -0.1065
    1DIPC   GL117679  12.226  26.419   4.165  0.2355 -0.1442 -0.2867
    1DIPC   GL217680  12.317  26.207   4.460 -0.3863  0.2187  0.2464
    1DIPC   C1A17681  11.850  26.232   4.322  0.1296  0.2101 -0.0210
    1DIPC   D2A17682  11.459  26.123   4.406 -0.1848 -0.6918  0.0908
    1DIPC   D3A17683  11.466  25.718   4.372  0.1506 -0.1031 -0.0829
    1DIPC   C4A17684  11.418  25.546   3.975 -0.1179 -0.1907 -0.5922
    1DIPC   C1B17685  12.224  25.924   4.787 -0.0225  0.2475  0.2468
    1DIPC   D2B17686  12.115  25.832   5.145  0.0152 -0.1833 -0.1542
    1DIPC   D3B17687  11.820  25.517   5.108  0.2480  0.0993  0.3620
    1DIPC   C4B17688  11.915  25.073   5.050  0.1981  0.1334 -0.2388
    1DIPC   NC317689   6.336   7.763   2.728  0.0219  0.0654  0.1173
    1DIPC   PO417690   6.017   7.846   2.973 -0.1236 -0.1275 -0.3407
    1DIPC   GL117691   6.118   8.010   3.340  0.0569  0.5275  0.0767
    1DIPC   GL217692   6.327   8.123   3.562  0.2522 -0.2670 -0.0730
    1DIPC   C1A17693   5.819   8.304   3.618 -0.1496  0.0862  0.1373
    1DIPC   D2A17694   5.412   8.451   3.901 -0.1268  0.0658  0.0826
    1DIPC   D3A17695   5.535   8.307   4.328  0.0039 -0.2426  0.1757
    1DIPC   C4A17696   5.465   8.099   4.649 -0.1770  0.1985  0.1155
    1DIPC   C1B17697   6.186   8.024   4.014 -0.1057  0.1720 -0.2111
    1DIPC   D2B17698   5.988   8.095   4.404 -0.0269 -0.3445 -0.0282
    1DIPC   D3B17699   5.999   7.745   4.609  0.0143  0.0462 -0.1049
    1DIPC   C4B17700   5.885   7.906   4.933 -0.1586  0.1661 -0.0806
    1DIPC   NC317701  25.910  17.151   2.218 -0.2082 -0.0942  0.0379
    1DIPC   PO417702  25.476  17.265   2.276  0.0148  0.2052  0.3471
    1DIPC   GL117703  25.557  16.942   2.546  0.1271 -0.1882 -0.0247
    1DIPC   GL217704  25.702  16.677   2.422  0.3626  0.1521  0.0356
    1DIPC   C1A17705  25.669  16.935   2.896  0.2581  0.1205 -0.2842
    1DIPC   D2A17706  25.906  17.222   3.090  0.1082 -0.2801 -0.2172
    1DIPC   D3A17707  26.264  17.160   3.456 -0.2380  0.0810  0.1609
    1DIPC   C4A17708  26.611  17.357   3.647 -0.0742  0.0095 -0.2273
    1DIPC   C1B17709  25.851  16.392   2.790  0.3409  0.2035 -0.0147
    1DIPC   D2B17710  25.911  16.036   3.021  0.0871  0.0911 -0.0978
    1DIPC   D3B17711  25.736  15.619   2.968 -0.0572  0.1185 -0.0452
    1DIPC   C4B17712  25.389  15.532   3.214  0.1781 -0.1046  0.0530
    1DIPC   NC317713  25.061  23.457   2.860 -0.1834  0.1775 -0.0208
    1DIPC   PO417714  25.141  23.143   3.172 -0.1207  0.2582  0.1646
    1DIPC   GL117715  25.306  23.134   3.579  0.1629 -0.0503  0.0449
    1DIPC   GL217716  25.682  23.146   3.640 -0.2210  0.0044 -0.0758
    1DIPC   C1A17717  25.161  23.283   3.987  0.5174  0.1333 -0.1296
    1DIPC   D2A17718  25.029  23.219   4.467 -0.0725  0.0947 -0.3183
    1DIPC   D3A17719  24.672  23.463   4.361  0.0422 -0.0641 -0.0097
    1DIPC   C4A17720  24.584  23.890   4.377 -0.2027  0.0958  0.0672
    1DIPC   C1B17721  25.854  23.283   4.084  0.0390  0.1286 -0.0285
    1DIPC   D2B17722  26.079  23.172   4.513 -0.0981 -0.0360 -0.1512
    1DIPC   D3B17723  25.837  22.863   4.637 -0.1556 -0.3700 -0.2009
    1DIPC   C4B17724  25.302  22.736   4.604 -0.2680  0.4183  0.0317
    1DIPC   NC317725  19.953  27.529   3.494  0.0304  0.1201  0.1825
    1DIPC   PO417726  20.322  27.709   3.679 -0.1205 -0.0852  0.2553
    1DIPC   GL117727  20.329  27.515   3.971 -0.0712 -0.1514  0.0491
    1DIPC   GL217728  20.504  27.822   4.123  0.3147  0.0865  0.1066
    1DIPC   C1A17729  20.645  27.279   4.311  0.2375 -0.0743  0.0762
    1DIPC   D2A17730  21.030  27.285   4.626  0.2988 -0.3228  0.0771
    1DIPC   D3A17731  21.307  27.436   4.237 -0.1199 -0.1917 -0.1969
    1DIPC   C4A17732  21.511  27.849   4.330  0.3495  0.0231 -0.0092
    1DIPC   C1B17733  20.507  28.122   4.367  0.1158  0.0981  0.2723
    1DIPC   D2B17734  20.480  28.141   4.807 -0.0973 -0.5428  0.0799
    1DIPC   D3B17735  20.629  28.485   4.939  0.3401  0.0838  0.0099
    1DIPC   C4B17736  20.646  28.845   5.165  0.1252 -0.0303  0.3377
    1DIPC   NC317737   1.075   6.809   2.449 -0.0609 -0.1126  0.0302
    1DIPC   PO417738   0.852   6.465   2.618  0.0100 -0.0189  0.2200
    1DIPC   GL117739   0.784   6.472   3.044 -0.1396 -0.0850 -0.0912
    1DIPC   GL217740   0.531   6.367   3.158  0.0040  0.2686 -0.2060
    1DIPC   C1A17741   0.599   6.814   3.399  0.0681  0.0119  0.1342
    1DIPC   D2A17742   0.782   7.106   3.743 -0.1171 -0.0827  0.3901
    1DIPC   D3A17743   0.952   7.393   3.593 -0.5003 -0.0402  0.0864
    1DIPC   C4A17744   1.352   7.410   3.768  0.3956  0.2438 -0.3757
    1DIPC   C1B17745   0.786   6.319   3.520 -0.1477  0.1883  0.1509
    1DIPC   D2B17746   0.596   6.174   3.914  0.0471 -0.2805  0.0629
    1DIPC   D3B17747   0.627   6.685   3.909 -0.1470 -0.0772  0.0103
    1DIPC   C4B17748   0.476   6.949   4.332 -0.0956  0.0995  0.0476
    1DIPC   NC317749  15.953  28.650   3.897  0.2104  0.1272 -0.1376
    1DIPC   PO417750  15.771  28.931   4.253 -0.0111  0.1129 -0.3340
    1DIPC   GL117751  16.225  29.090   4.509 -0.0456  0.1009 -0.2191
    1DIPC   GL217752  16.419  28.845   4.451  0.1777 -0.1919  0.0385
    1DIPC   C1A17753  16.506  29.195   4.847  0.4640  0.0214 -0.3726
    1DIPC   D2A17754  16.546  29.474   5.142 -0.2915 -0.4245 -0.0156
    1DIPC   D3A17755  16.752  29.162   5.381 -0.1508 -0.1357  0.0106
    1DIPC   C4A17756  16.862  29.291   5.796  0.0134 -0.0987 -0.0446
    1DIPC   C1B17757  16.468  28.685   4.816  0.0685 -0.4218  0.1877
    1DIPC   D2B17758  16.511  28.675   5.266  0.0722 -0.0388 -0.0623
    1DIPC   D3B17759  16.688  28.222   5.179 -0.0116  0.1417 -0.0788
    1DIPC   C4B17760  17.149  28.114   5.136  0.2694 -0.1022 -0.0230
    1DIPC   NC317761  27.268  11.256   2.815  0.1078 -0.1053 -0.0637
    1DIPC   PO417762  27.716  11.158   2.979  0.0847  0.3821 -0.1510
    1DIPC   GL117763  27.846  10.815   3.344  0.1087 -0.1400 -0.1097
    1DIPC   GL217764  27.830  10.867   3.692 -0.1910 -0.0645 -0.2171
    1DIPC   C1A17765  27.733  10.372   3.452 -0.1045  0.1220 -0.1048
    1DIPC   D2A17766  27.742  10.368   3.830  0.2633  0.0910 -0.0309
    1DIPC   D3A17767  28.156  10.537   3.799 -0.1588  0.5872 -0.2540
    1DIPC   C4A17768  28.503  10.323   3.831 -0.2655 -0.1501  0.0901
    1DIPC   C1B17769  27.853  10.712   4.108 -0.2128 -0.4177  0.0802
    1DIPC   D2B17770  27.999  10.639   4.494 -0.1665 -0.4509 -0.0416
    1DIPC   D3B17771  28.340  10.454   4.283  0.1519  0.1567 -0.2474
    1DIPC   C4B17772  28.509  10.252   4.429  0.1135 -0.0546  0.0710
    1DIPC   NC317773  15.654   4.530   3.826  0.0188  0.2242  0.0236
    1DIPC   PO417774  15.254   4.675   3.869  0.0758 -0.0207  0.0780
    1DIPC   GL117775  15.494   4.608   4.268  0.2252 -0.1567  0.1144
    1DIPC   GL217776  15.684   4.490   4.335  0.0623 -0.0942  0.3176
    1DIPC   C1A17777  15.602   4.852   4.674  0.0336 -0.0536  0.1250
    1DIPC   D2A17778  15.650   4.737   5.037  0.2717 -0.0539 -0.0036
    1DIPC   D3A17779  15.717   4.249   5.082  0.1994 -0.0668  0.0731
    1DIPC   C4A17780  15.887   4.046   4.693 -0.1445 -0.1939  0.0080
    1DIPC   C1B17781  15.438   4.381   4.668  0.1202 -0.0160 -0.4094
    1DIPC   D2B17782  15.235   4.480   5.022 -0.1558  0.1337 -0.1220
    1DIPC   D3B17783  15.140   4.920   4.989 -0.0563  0.0225  0.1425
    1DIPC   C4B17784  15.500   5.260   5.106  0.1882 -0.1903  0.0195
    1DIPC   NC317785  19.603  21.091   3.241  0.5159 -0.0138 -0.0955
    1DIPC   PO417786  19.791  20.667   3.254  0.2155  0.3116  0.1022
    1DIPC   GL117787  20.088  21.047   3.364  0.0582  0.2922  0.3216
    1DIPC   GL217788  20.106  21.326   3.233  0.0992 -0.1925  0.1626
    1DIPC   C1A17789  20.134  21.329   3.716  0.2181 -0.1508  0.0580
    1DIPC   D2A17790  20.344  21.338   4.221 -0.0825  0.0466 -0.2322
    1DIPC   D3A17791  20.355  20.925   3.969  0.1167  0.0631 -0.2134
    1DIPC   C4A17792  20.080  20.504   3.951  0.0345 -0.2479  0.0283
    1DIPC   C1B17793  20.516  21.486   3.431  0.1212 -0.0627 -0.0045
    1DIPC   D2B17794  20.841  21.682   3.612 -0.0180  0.2548  0.0037
    1DIPC   D3B17795  20.746  21.250   3.845 -0.0216 -0.2349 -0.0039
    1DIPC   C4B17796  20.646  21.017   3.576  0.0667  0.1849  0.1345
    1DIPC   NC317797   0.656  20.056   2.758  0.1452 -0.1214  0.1588
    1DIPC   PO417798   0.296  19.854   2.562  0.0307  0.2512 -0.1278
    1DIPC   GL117799   0.246  19.803   2.970  0.1324 -0.2874 -0.2971
    1DIPC   GL217800   0.220  19.496   3.130 -0.0394 -0.0349  0.2362
    1DIPC   C1A17801   0.262  19.841   3.445  0.1337 -0.3601 -0.1246
    1DIPC   D2A17802   0.119  20.270   3.516  0.3434 -0.3513 -0.4597
    1DIPC   D3A17803  -0.116  20.549   3.877  0.0116 -0.1139 -0.1996
    1DIPC   C4A17804  -0.001  20.891   4.111  0.0053  0.2331  0.2121
    1DIPC   C1B17805   0.072  19.323   3.516 -0.1028  0.1042 -0.0136
    1DIPC   D2B17806  -0.025  19.372   3.953  0.4447  0.1416 -0.1253
    1DIPC   D3B17807  -0.217  19.740   4.157  0.0470  0.3250 -0.3438
    1DIPC   C4B17808   0.018  20.065   4.047 -0.2079  0.1307  0.0681
    1DIPC   NC317809   6.823  19.477   2.346  0.3644  0.0106  0.0149
    1DIPC   PO417810   7.286  19.357   2.351  0.0842  0.2856 -0.3728
    1DIPC   GL117811   7.289  19.263   2.835 -0.0193 -0.3234  0.0580
    1DIPC   GL217812   7.538  19.338   3.209 -0.1629  0.2193  0.0654
    1DIPC   C1A17813   7.114  18.892   3.150  0.3321 -0.0193  0.3332
    1DIPC   D2A17814   7.092  18.678   3.488  0.2139 -0.0591  0.1701
    1DIPC   D3A17815   7.413  18.942   3.614  0.2321 -0.3621 -0.2196
    1DIPC   C4A17816   7.430  19.231   3.862 -0.0061 -0.0797 -0.2159
    1DIPC   C1B17817   7.628  19.596   3.559 -0.0445  0.0161 -0.1043
    1DIPC   D2B17818   7.548  19.708   3.945 -0.2393  0.0575  0.1878
    1DIPC   D3B17819   7.510  20.118   4.017  0.2871  0.1254  0.3853
    1DIPC   C4B17820   7.815  20.259   4.154 -0.1742 -0.2634 -0.1890
    1DIPC   NC317821   6.864  23.110   2.107 -0.0347  0.3469  0.2943
    1DIPC   PO417822   6.739  23.317   2.504 -0.0484  0.1226  0.2011
    1DIPC   GL117823   6.752  23.155   2.911  0.3658  0.0282 -0.2130
    1DIPC   GL217824   6.377  23.052   2.888  0.1109  0.0834 -0.4005
    1DIPC   C1A17825   7.141  23.083   3.174  0.2270  0.0257  0.0830
    1DIPC   D2A17826   7.400  23.444   3.320  0.0735 -0.1796  0.0102
    1DIPC   D3A17827   7.380  23.192   3.672  0.2571  0.0521 -0.1011
    1DIPC   C4A17828   7.017  22.987   3.709 -0.2599 -0.1880  0.0084
    1DIPC   C1B17829   6.549  22.730   3.246  0.1109 -0.0929 -0.1894
    1DIPC   D2B17830   6.768  22.518   3.696  0.1819  0.2144 -0.0913
    1DIPC   D3B17831   7.167  22.568   3.982 -0.1299  0.0340 -0.1827
    1DIPC   C4B17832   7.531  22.664   3.707 -0.1278 -0.4532  0.1368
    1DIPC   NC317833   2.968  22.121   2.262 -0.4352 -0.1813 -0.0861
    1DIPC   PO417834   3.313  21.757   2.451 -0.0574  0.1823  0.0438
    1DIPC   GL117835   3.303  21.591   2.911 -0.1821  0.1522 -0.1916
    1DIPC   GL217836   3.014  21.301   3.009  0.0735 -0.0927  0.0962
    1DIPC   C1A17837   3.010  21.867   3.203 -0.0525  0.2698 -0.2264
    1DIPC   D2A17838   2.760  22.033   3.534 -0.3812 -0.3073  0.1264
    1DIPC   D3A17839   2.539  22.373   3.400  0.0553 -0.3040 -0.0147
    1DIPC   C4A17840   2.586  22.781   3.390 -0.0127 -0.0611 -0.0838
    1DIPC   C1B17841   2.714  21.416   3.343 -0.2163 -0.2138  0.1947
    1DIPC   D2B17842   2.685  21.498   3.818  0.1145 -0.0353  0.2115
    1DIPC   D3B17843   3.083  21.485   4.032 -0.0122 -0.0143 -0.1373
    1DIPC   C4B17844   3.434  21.719   4.170 -0.1968  0.1677  0.0748
    1DIPC   NC317845   1.879   0.327   2.513 -0.0533 -0.2219  0.2518
    1DIPC   PO417846   1.626   0.087   2.774  0.0809 -0.0216  0.0095
    1DIPC   GL117847   1.623   0.139   3.289 -0.0047 -0.2062 -0.1465
    1DIPC   GL217848   1.913   0.119   3.422 -0.0488  0.0806  0.0467
    1DIPC   C1A17849   1.603   0.276   3.707  0.0906  0.1146 -0.0483
    1DIPC   D2A17850   1.439   0.316   4.066  0.2187  0.0871 -0.0699
    1DIPC   D3A17851   1.432   0.750   3.949 -0.0942  0.0169 -0.2461
    1DIPC   C4A17852   1.254   0.727   3.578  0.0971  0.0506  0.0753
    1DIPC   C1B17853   2.334   0.015   3.701 -0.3865 -0.2263  0.1743
    1DIPC   D2B17854   2.673   0.040   4.062  0.3019 -0.0898 -0.2610
    1DIPC   D3B17855   2.783  -0.191   4.371  0.0749 -0.0878  0.0812
    1DIPC   C4B17856   2.893  -0.564   4.381  0.1784 -0.2074  0.5122
    1DIPC   NC317857   6.782  16.785   2.199 -0.3108 -0.2506 -0.0842
    1DIPC   PO417858   7.078  16.635   2.374 -0.1025 -0.0335  0.0929
    1DIPC   GL117859   7.080  17.017   2.675 -0.1617 -0.1272  0.0997
    1DIPC   GL217860   7.328  17.136   2.774 -0.1289 -0.2589 -0.3782
    1DIPC   C1A17861   6.892  17.204   3.046 -0.0688 -0.0704  0.0130
    1DIPC   D2A17862   6.974  17.271   3.478  0.2268 -0.3976  0.0055
    1DIPC   D3A17863   7.052  16.818   3.511  0.0766  0.1064  0.0039
    1DIPC   C4A17864   6.976  16.642   3.044  0.0222  0.0733 -0.1035
    1DIPC   C1B17865   7.355  17.099   3.191 -0.0102 -0.0449  0.1555
    1DIPC   D2B17866   7.439  17.291   3.532 -0.0024 -0.3764 -0.0172
    1DIPC   D3B17867   7.264  17.283   3.862  0.0446 -0.4217 -0.2584
    1DIPC   C4B17868   6.850  17.507   4.150  0.1161  0.3829 -0.0671
    1DIPC   NC317869  17.689  24.044   2.868  0.3528 -0.1150  0.4122
    1DIPC   PO417870  18.110  24.151   3.205  0.1777 -0.1120  0.0155
    1DIPC   GL117871  18.219  24.230   3.632  0.0514  0.1143 -0.0733
    1DIPC   GL217872  17.940  24.188   3.735 -0.0213  0.1189  0.1240
    1DIPC   C1A17873  18.424  24.216   3.976 -0.0561 -0.3127 -0.0225
    1DIPC   D2A17874  18.674  23.944   4.306  0.1193  0.1485  0.0409
    1DIPC   D3A17875  18.517  24.265   4.654 -0.0946  0.0188  0.0296
    1DIPC   C4A17876  18.832  24.580   4.896  0.2358  0.2842 -0.0157
    1DIPC   C1B17877  17.978  24.015   4.216 -0.0036  0.1071  0.0022
    1DIPC   D2B17878  18.142  23.903   4.604  0.2270 -0.1836  0.2847
    1DIPC   D3B17879  17.882  24.162   4.832 -0.0509 -0.1280  0.0055
    1DIPC   C4B17880  17.603  23.900   5.090 -0.0255  0.1516  0.0962
    1DIPC   NC317881  20.940  27.876   3.133 -0.0862  0.1762  0.0164
    1DIPC   PO417882  20.540  28.028   3.215  0.2882 -0.2416 -0.1750
    1DIPC   GL117883  20.374  28.259   3.657  0.0468  0.4662 -0.1396
    1DIPC   GL217884  20.194  28.207   4.042  0.1246  0.1719  0.0450
    1DIPC   C1A17885  20.385  28.649   3.937 -0.0775  0.2633  0.0991
    1DIPC   D2A17886  20.641  28.649   4.334 -0.2551  0.2544 -0.0331
    1DIPC   D3A17887  20.505  29.117   4.269 -0.1364  0.0784 -0.1196
    1DIPC   C4A17888  20.128  29.262   4.447  0.1133  0.0440  0.0732
    1DIPC   C1B17889  19.990  28.275   4.417  0.2457 -0.1944 -0.0710
    1DIPC   D2B17890  19.716  28.501   4.687 -0.0239 -0.1231  0.0063
    1DIPC   D3B17891  19.840  28.888   4.728 -0.1748 -0.0430  0.0141
    1DIPC   C4B17892  20.330  28.828   4.751  0.0808  0.0383  0.4134
    1DIPC   NC317893  10.792   6.655   3.252  0.1065  0.0758  0.1874
    1DIPC   PO417894  10.404   6.648   3.561 -0.0296 -0.1768  0.0309
    1DIPC   GL117895  10.288   6.357   3.861 -0.1466 -0.0060  0.0098
    1DIPC   GL217896  10.005   6.116   3.921 -0.3766  0.0905  0.0294
    1DIPC   C1A17897  10.221   6.235   4.338  0.1632  0.0521 -0.1668
    1DIPC   D2A17898   9.979   6.209   4.816  0.3042  0.0793 -0.0227
    1DIPC   D3A17899  10.397   5.998   5.024  0.2873 -0.0279  0.0714
    1DIPC   C4A17900  10.720   6.217   4.956  0.0010 -0.1635  0.0130
    1DIPC   C1B17901   9.635   6.177   4.118 -0.0744 -0.2870 -0.1368
    1DIPC   D2B17902   9.570   6.159   4.509 -0.1340 -0.0143 -0.1740
    1DIPC   D3B17903   9.525   6.066   4.984  0.0093 -0.1662  0.2431
    1DIPC   C4B17904   9.771   5.751   5.159  0.0604 -0.1974 -0.0595
    1DIPC   NC317905  18.837   6.360   3.376 -0.0537  0.1910  0.0620
    1DIPC   PO417906  18.484   6.513   3.458 -0.2838 -0.0462 -0.1002
    1DIPC   GL117907  18.583   6.348   3.803 -0.1654  0.1122 -0.1373
    1DIPC   GL217908  18.311   6.605   3.922 -0.2504 -0.0182 -0.1052
    1DIPC   C1A17909  18.644   6.380   4.238  0.1879  0.1361 -0.0494
    1DIPC   D2A17910  18.876   6.571   4.611 -0.1724 -0.0668 -0.1569
    1DIPC   D3A17911  19.353   6.388   4.578  0.0668 -0.0311 -0.0546
    1DIPC   C4A17912  19.690   6.483   4.846 -0.1908 -0.1530 -0.0239
    1DIPC   C1B17913  18.651   6.874   4.126 -0.2075 -0.0105 -0.0906
    1DIPC   D2B17914  18.968   7.204   4.156 -0.0536 -0.2063 -0.1701
    1DIPC   D3B17915  18.843   7.104   4.500 -0.1896  0.0962  0.3636
    1DIPC   C4B17916  18.392   7.007   4.672  0.0131  0.0508  0.0328
    1DIPC   NC317917   3.291   9.267   2.607 -0.1076 -0.1046 -0.0252
    1DIPC   PO417918   3.608   8.906   2.859  0.0235 -0.1783  0.3212
    1DIPC   GL117919   3.623   8.767   3.236 -0.2870 -0.1589  0.0445
    1DIPC   GL217920   3.796   9.016   3.448  0.4901  0.1401  0.1199
    1DIPC   C1A17921   3.492   8.622   3.672  0.1536 -0.0118  0.0561
    1DIPC   D2A17922   3.116   8.416   3.755 -0.5477 -0.0858 -0.1451
    1DIPC   D3A17923   2.776   8.542   3.906  0.3229 -0.6550 -0.1134
    1DIPC   C4A17924   2.619   8.231   4.237 -0.1048 -0.1626  0.3848
    1DIPC   C1B17925   3.868   8.970   4.045 -0.0441  0.2715  0.7159
    1DIPC   D2B17926   3.929   9.311   4.188  0.1441 -0.3063 -0.2158
    1DIPC   D3B17927   3.603   9.120   4.409 -0.3485  0.0682  0.3334
    1DIPC   C4B17928   3.238   9.293   4.393  0.1610  0.4803  0.1792
    1DIPC   NC317929   5.289  27.311   3.091  0.0771  0.1420  0.1868
    1DIPC   PO417930   5.660  27.326   3.289 -0.0011  0.3273 -0.0930
    1DIPC   GL117931   5.461  27.182   3.676 -0.0065  0.3415 -0.0883
    1DIPC   GL217932   5.565  26.901   3.630 -0.0844  0.0609 -0.0109
    1DIPC   C1A17933   5.433  27.081   4.085 -0.0781  0.1144  0.2492
    1DIPC   D2A17934   5.359  26.923   4.497 -0.0076  0.0224 -0.1020
    1DIPC   D3A17935   5.174  26.896   4.881 -0.0056 -0.0109 -0.4363
    1DIPC   C4A17936   5.242  27.256   5.139 -0.0068  0.0062  0.0833
    1DIPC   C1B17937   5.800  26.786   4.002 -0.2058 -0.0888  0.2146
    1DIPC   D2B17938   5.773  26.662   4.322 -0.0322 -0.1476 -0.0733
    1DIPC   D3B17939   6.068  26.453   4.580 -0.1233 -0.5084 -0.6447
    1DIPC   C4B17940   6.578  26.680   4.732 -0.1136 -0.2508  0.2084
    1DIPC   NC317941  18.766   5.114   2.749  0.1263 -0.0483 -0.2603
    1DIPC   PO417942  18.370   5.173   3.032  0.0323 -0.0508  0.2430
    1DIPC   GL117943  18.605   5.193   3.444 -0.0448 -0.0892  0.2625
    1DIPC   GL217944  18.711   4.989   3.412  0.1081  0.1346 -0.1062
    1DIPC   C1A17945  18.595   5.392   3.787  0.1918  0.2896 -0.1898
    1DIPC   D2A17946  18.514   5.528   4.331 -0.0836  0.0198 -0.1302
    1DIPC   D3A17947  18.628   5.917   4.514  0.1928  0.0026 -0.0073
    1DIPC   C4A17948  18.861   5.958   4.814 -0.1431 -0.1596  0.0652
    1DIPC   C1B17949  19.019   5.091   3.802 -0.1684 -0.0927 -0.0840
    1DIPC   D2B17950  19.307   5.242   4.087 -0.1686  0.0157  0.1027
    1DIPC   D3B17951  19.047   5.556   4.186  0.0933 -0.1014 -0.0123
    1DIPC   C4B17952  19.188   5.993   4.215  0.0836  0.1727 -0.2212
    1DIPC   NC317953  10.372  29.099   3.774  0.0933  0.1753 -0.2139
    1DIPC   PO417954  10.521  28.822   4.049  0.1123  0.3760 -0.0176
    1DIPC   GL117955  10.366  28.770   4.464  0.2417 -0.0102 -0.1005
    1DIPC   GL217956  10.032  28.678   4.401 -0.0512 -0.2241 -0.5276
    1DIPC   C1A17957  10.381  28.753   4.880  0.0433 -0.1569  0.2102
    1DIPC   D2A17958  10.249  28.842   5.257  0.0387  0.2938 -0.1559
    1DIPC   D3A17959   9.909  29.063   5.333  0.1931 -0.0775 -0.0519
    1DIPC   C4A17960   9.746  29.126   5.738 -0.1599  0.0974 -0.3262
    1DIPC   C1B17961   9.776  28.725   4.754  0.1591 -0.4996  0.0343
    1DIPC   D2B17962   9.336  28.838   4.846 -0.1327  0.0388  0.1475
    1DIPC   D3B17963   9.450  28.454   4.999  0.2442  0.0634  0.0108
    1DIPC   C4B17964   9.463  28.170   5.336 -0.2067  0.0414 -0.0769
    1DIPC   NC317965   1.417   2.862   3.114 -0.0333  0.1424 -0.0077
    1DIPC   PO417966   1.156   3.033   2.689 -0.1263  0.0975 -0.2115
    1DIPC   GL117967   0.971   3.288   3.093  0.0182  0.3526 -0.0792
    1DIPC   GL217968   1.036   3.251   3.441  0.0201 -0.0683 -0.1602
    1DIPC   C1A17969   0.618   3.481   3.247  0.2032 -0.3094 -0.0101
    1DIPC   D2A17970   0.133   3.490   3.460  0.3572  0.0008  0.0724
    1DIPC   D3A17971   0.306   3.706   3.853  0.0229 -0.0143  0.0696
    1DIPC   C4A17972   0.141   3.671   4.261  0.3047  0.1046  0.2857
    1DIPC   C1B17973   0.671   3.117   3.558  0.1085 -0.1209  0.1093
    1DIPC   D2B17974   0.396   3.153   3.820  0.0462  0.0064  0.0192
    1DIPC   D3B17975   0.459   3.282   4.217  0.0360 -0.2834  0.2972
    1DIPC   C4B17976   0.671   3.619   4.322 -0.1110  0.0396 -0.2878
    1DIPC   NC317977   5.498   4.371   2.639  0.4301  0.0049 -0.4234
    1DIPC   PO417978   5.627   4.181   3.022  0.1122 -0.3323 -0.0023
    1DIPC   GL117979   5.479   4.432   3.470 -0.0011 -0.2445  0.0138
    1DIPC   GL217980   5.592   4.291   3.785  0.0910  0.3486 -0.0079
    1DIPC   C1A17981   5.505   4.841   3.682  0.0056  0.0268 -0.3521
    1DIPC   D2A17982   5.584   5.238   3.719  0.3264 -0.2633  0.2175
    1DIPC   D3A17983   5.867   4.980   4.006 -0.1919  0.1848 -0.1855
    1DIPC   C4A17984   6.072   5.033   4.353 -0.2911 -0.1008 -0.0141
    1DIPC   C1B17985   5.562   4.577   4.088  0.0154 -0.0490 -0.0182
    1DIPC   D2B17986   5.360   4.831   4.406  0.3846  0.1969 -0.0684
    1DIPC   D3B17987   5.231   4.565   4.543 -0.4688  0.1553 -0.1969
    1DIPC   C4B17988   4.774   4.458   4.429 -0.1049 -0.1654  0.1292
    1DIPC   NC317989  14.902  25.862   2.656 -0.0915  0.2615 -0.1201
    1DIPC   PO417990  14.878  26.029   3.046  0.0371 -0.1037  0.1323
    1DIPC   GL117991  15.013  25.934   3.461  0.2522 -0.2967  0.0542
    1DIPC   GL217992  15.160  26.251   3.661  0.0137  0.4153  0.0886
    1DIPC   C1A17993  15.317  25.724   3.687  0.2516  0.1466 -0.2154
    1DIPC   D2A17994  15.406  25.392   3.892 -0.0644 -0.1342 -0.0407
    1DIPC   D3A17995  15.372  25.716   4.226  0.2937  0.0993 -0.3366
    1DIPC   C4A17996  15.050  26.075   4.109 -0.0353 -0.4717  0.0059
    1DIPC   C1B17997  15.563  26.329   3.790 -0.1609  0.0195 -0.0276
    1DIPC   D2B17998  15.930  26.386   3.996  0.0850 -0.0743 -0.1411
    1DIPC   D3B17999  15.828  26.774   4.241 -0.4295  0.0046 -0.3813
    1DIPC   C4B18000  15.635  26.776   4.569 -0.1945  0.2620 -0.2444
    1DIPC   NC318001  27.337   3.832   2.612 -0.0772  0.2622  0.1660
    1DIPC   PO418002  27.593   4.064   2.841 -0.0827  0.2730  0.0974
    1DIPC   GL118003  27.725   4.069   3.221 -0.0476 -0.1521 -0.0448
    1DIPC   GL218004  27.945   4.298   3.198  0.0886  0.3238 -0.0367
    1DIPC   C1A18005  27.769   3.817   3.631  0.1222 -0.1246 -0.1837
    1DIPC   D2A18006  27.720   3.609   4.080  0.0368 -0.4927 -0.0236
    1DIPC   D3A18007  27.990   3.536   4.397  0.1100 -0.2803 -0.0671
    1DIPC   C4A18008  28.339   3.730   4.479  0.2242 -0.3495 -0.0127
    1DIPC   C1B18009  27.886   4.834   3.299 -0.0762 -0.1407 -0.4797
    1DIPC   D2B18010  27.691   5.222   3.408 -0.0793 -0.3381 -0.1734
    1DIPC   D3B18011  27.488   5.014   3.788  0.0888  0.1718  0.0985
    1DIPC   C4B18012  27.226   5.150   4.188  0.0815 -0.1438  0.0189
    1DIPC   NC318013   7.511  18.924   2.302 -0.1753 -0.1000  0.1953
    1DIPC   PO418014   7.190  18.711   2.176 -0.0083 -0.0342  0.0455
    1DIPC   GL118015   7.254  18.533   2.565 -0.3179  0.0653  0.2540
    1DIPC   GL218016   7.439  18.776   2.748 -0.2555 -0.0661 -0.0513
    1DIPC   C1A18017   6.906  18.526   2.855  0.2997 -0.1418  0.0445
    1DIPC   D2A18018   6.522  18.705   2.859  0.4656 -0.2987  0.1571
    1DIPC   D3A18019   6.457  18.769   3.201  0.1377 -0.0349  0.1191
    1DIPC   C4A18020   6.662  19.015   3.340  0.2100  0.0444  0.1732
    1DIPC   C1B18021   7.650  18.827   3.219 -0.1931  0.1211 -0.1441
    1DIPC   D2B18022   7.927  19.059   3.634 -0.2082  0.3402  0.0947
    1DIPC   D3B18023   7.670  18.846   4.017  0.2716 -0.0517 -0.0317
    1DIPC   C4B18024   7.212  18.822   4.113 -0.3498 -0.0065  0.3711
    1DIPC   NC318025   0.403  15.464   1.927 -0.0189  0.0730  0.1084
    1DIPC   PO418026   0.062  15.697   2.134 -0.1092  0.1353 -0.2120
    1DIPC   GL118027   0.331  15.679   2.509 -0.1259 -0.2237  0.1449
    1DIPC   GL218028   0.692  15.582   2.370 -0.0708  0.1243 -0.1614
    1DIPC   C1A18029   0.538  16.006   2.793 -0.5873 -0.0516 -0.3977
    1DIPC   D2A18030   0.548  16.254   3.117 -0.0482  0.0001 -0.0776
    1DIPC   D3A18031   1.036  16.226   3.096  0.0214 -0.0219  0.2641
    1DIPC   C4A18032   1.304  15.787   3.111 -0.1471 -0.1009 -0.0902
    1DIPC   C1B18033   0.732  15.251   2.556 -0.2013  0.0886 -0.0943
    1DIPC   D2B18034   0.630  14.943   2.967  0.0366  0.0531 -0.2122
    1DIPC   D3B18035   0.995  14.771   3.176  0.0348 -0.0401  0.1348
    1DIPC   C4B18036   1.179  14.582   3.514 -0.2992 -0.0079  0.0519
    1DIPC   NC318037  26.075   5.750   2.199 -0.0938  0.1638 -0.0430
    1DIPC   PO418038  25.993   6.085   2.325 -0.0369 -0.1785 -0.2149
    1DIPC   GL118039  25.982   6.407   2.781  0.0872  0.1147 -0.0789
    1DIPC   GL218040  26.370   6.374   3.024 -0.0433 -0.0134  0.0218
    1DIPC   C1A18041  25.946   6.602   3.265 -0.0688  0.0177  0.2008
    1DIPC   D2A18042  25.755   6.739   3.679 -0.0337 -0.1646 -0.1276
    1DIPC   D3A18043  25.466   6.502   3.941 -0.3261 -0.2651  0.0547
    1DIPC   C4A18044  25.410   6.372   4.394  0.0056 -0.2033  0.3814
    1DIPC   C1B18045  26.274   6.132   3.415 -0.2149 -0.3067  0.3544
    1DIPC   D2B18046  25.914   6.276   3.690  0.0157  0.2036  0.2463
    1DIPC   D3B18047  26.097   6.454   4.054 -0.3650 -0.1568  0.0551
    1DIPC   C4B18048  26.430   6.626   4.171  0.3022 -0.1675 -0.2330
    1DIPC   NC318049  28.649  11.924   2.822  0.1773  0.1826 -0.0132
    1DIPC   PO418050  28.797  12.295   2.686  0.1502 -0.3656 -0.1296
    1DIPC   GL118051  28.828  12.483   3.171  0.1451 -0.1897 -0.0717
    1DIPC   GL218052  28.908  12.834   3.207  0.1285  0.0581  0.1140
    1DIPC   C1A18053  28.917  12.581   3.637 -0.1668  0.4793  0.1075
    1DIPC   D2A18054  28.834  12.477   4.066  0.2941 -0.2197 -0.1812
    1DIPC   D3A18055  28.656  12.851   4.011 -0.2650 -0.0196 -0.1017
    1DIPC   C4A18056  28.768  13.260   4.238 -0.1340  0.2366 -0.2494
    1DIPC   C1B18057  29.126  13.028   3.562  0.0226  0.1100 -0.1120
    1DIPC   D2B18058  29.398  13.466   3.457 -0.3394  0.1044  0.0539
    1DIPC   D3B18059  29.379  13.753   3.838 -0.0210 -0.2333  0.2084
    1DIPC   C4B18060  29.650  13.796   4.075  0.1301  0.0081  0.0845
    1DIPC   NC318061   8.278  10.214   3.172  0.0022  0.0366 -0.1165
    1DIPC   PO418062   8.510   9.899   3.132  0.3141 -0.1715  0.1442
    1DIPC   GL118063   8.393   9.764   3.530 -0.0665 -0.1677  0.3880
    1DIPC   GL218064   7.999  10.024   3.655  0.1510  0.2751  0.1582
    1DIPC   C1A18065   8.265   9.725   3.933  0.0032  0.1402  0.0581
    1DIPC   D2A18066   8.129   9.642   4.315 -0.2508 -0.0868  0.4427
    1DIPC   D3A18067   8.019   9.425   4.686 -0.0725  0.3079  0.1862
    1DIPC   C4A18068   7.578   9.273   4.803 -0.0337  0.0678  0.2914
    1DIPC   C1B18069   7.814   9.556   3.686  0.0722 -0.3341 -0.1002
    1DIPC   D2B18070   7.982   9.197   3.828 -0.4449  0.0988 -0.2033
    1DIPC   D3B18071   8.058   9.117   4.266  0.3825  0.0760  0.1895
    1DIPC   C4B18072   8.022   8.821   4.693  0.0193 -0.1358  0.3815
    1DIPC   NC318073  16.343  23.459   3.009 -0.0914 -0.2041 -0.1234
    1DIPC   PO418074  16.328  23.820   3.235 -0.2830  0.0791 -0.0065
    1DIPC   GL118075  16.075  23.986   3.662 -0.0552 -0.0350  0.0925
    1DIPC   GL218076  16.179  24.272   3.807  0.1918 -0.1224 -0.2393
    1DIPC   C1A18077  16.147  23.804   4.083 -0.1267  0.1623 -0.1242
    1DIPC   D2A18078  15.883  23.594   4.372  0.0246  0.1398  0.4020
    1DIPC   D3A18079  16.329  23.913   4.555  0.0409 -0.0479  0.2501
    1DIPC   C4A18080  16.737  23.993   4.806  0.3000 -0.3200  0.0178
    1DIPC   C1B18081  15.869  24.202   4.207  0.4339  0.0961 -0.1538
    1DIPC   D2B18082  15.718  24.001   4.582  0.0970  0.1565 -0.4491
    1DIPC   D3B18083  15.350  24.407   4.586 -0.0333  0.0630 -0.1685
    1DIPC   C4B18084  15.018  24.521   4.859 -0.0464  0.1639 -0.1331
    1DIPC   NC318085  18.792   8.160   3.012  0.0013 -0.0726  0.3155
    1DIPC   PO418086  19.188   8.027   2.925  0.1604 -0.0773 -0.0646
    1DIPC   GL118087  19.344   8.271   3.188 -0.1412 -0.0510 -0.0579
    1DIPC   GL218088  19.135   8.558   3.379 -0.1677 -0.0287  0.0373
    1DIPC   C1A18089  19.445   8.260   3.593  0.0607 -0.1483 -0.1378
    1DIPC   D2A18090  19.364   8.112   4.060 -0.0459 -0.0620  0.2999
    1DIPC   D3A18091  19.615   7.753   3.863 -0.1881 -0.0830  0.0200
    1DIPC   C4A18092  19.774   7.458   4.137 -0.1382  0.0370 -0.1880
    1DIPC   C1B18093  18.952   8.439   3.798 -0.1165  0.1810  0.0276
    1DIPC   D2B18094  18.825   8.067   3.983 -0.0837 -0.0167 -0.0290
    1DIPC   D3B18095  18.565   8.135   4.304  0.1432 -0.2540  0.0216
    1DIPC   C4B18096  18.512   7.979   4.649  0.0982 -0.0676  0.1010
    1DIPC   NC318097   5.988  26.937   3.309  0.2902 -0.0914  0.1791
    1DIPC   PO418098   5.920  26.527   3.357  0.0996  0.2014  0.0764
    1DIPC   GL118099   6.002  26.247   3.588 -0.3757 -0.0580  0.1128
    1DIPC   GL218100   5.808  26.316   3.896  0.1231  0.2270  0.2270
    1DIPC   C1A18101   6.253  25.920   3.901  0.1907 -0.0104 -0.0424
    1DIPC   D2A18102   6.349  25.618   4.188 -0.0988 -0.0535  0.1860
    1DIPC   D3A18103   6.684  25.438   4.413  0.3520  0.1037 -0.1691
    1DIPC   C4A18104   6.673  25.438   4.883 -0.0344 -0.0836 -0.0045
    1DIPC   C1B18105   5.925  26.086   4.250  0.2251  0.2739  0.3729
    1DIPC   D2B18106   5.996  25.851   4.573  0.1940  0.1238  0.1118
    1DIPC   D3B18107   6.237  25.528   4.690 -0.4481 -0.1730 -0.0133
    1DIPC   C4B18108   6.027  25.150   4.563 -0.1886 -0.0814 -0.0406
    1DIPC   NC318109   5.168   2.450   2.663 -0.0551  0.0020 -0.0460
    1DIPC   PO418110   5.541   2.524   2.894 -0.3559  0.2272  0.2596
    1DIPC   GL118111   5.759   2.511   3.269  0.1442  0.1622  0.3576
    1DIPC   GL218112   5.546   2.727   3.486  0.0731  0.0366 -0.1743
    1DIPC   C1A18113   5.962   2.526   3.745 -0.3775 -0.0022  0.0582
    1DIPC   D2A18114   5.954   2.621   4.135 -0.2064 -0.3110  0.2650
    1DIPC   D3A18115   6.161   2.455   4.558  0.2435 -0.1538  0.2331
    1DIPC   C4A18116   6.496   2.356   4.589 -0.1086  0.1796  0.1017
    1DIPC   C1B18117   5.531   2.297   3.617 -0.0740 -0.2928  0.0324
    1DIPC   D2B18118   5.795   2.012   3.473  0.2318 -0.0081  0.0175
    1DIPC   D3B18119   6.020   1.931   3.795  0.3864 -0.1311 -0.0055
    1DIPC   C4B18120   6.072   1.537   3.992  0.1332 -0.0159 -0.1704
    1DIPC   NC318121  19.650  22.140   3.155  0.0619 -0.2038 -0.1623
    1DIPC   PO418122  19.495  21.708   3.239  0.3860  0.1579 -0.3106
    1DIPC   GL118123  19.462  21.912   3.601  0.1360 -0.4570  0.1373
    1DIPC   GL218124  19.624  22.143   3.706 -0.0550 -0.1049 -0.0619
    1DIPC   C1A18125  19.412  21.684   4.097 -0.2406  0.0050  0.0882
    1DIPC   D2A18126  19.474  21.580   4.479 -0.1416 -0.0452  0.1435
    1DIPC   D3A18127  19.659  21.199   4.429 -0.1926 -0.0366 -0.0456
    1DIPC   C4A18128  19.982  21.316   4.554 -0.0173  0.0241 -0.4115
    1DIPC   C1B18129  19.665  22.143   4.133  0.3236 -0.0875  0.0830
    1DIPC   D2B18130  19.535  22.058   4.552 -0.0679  0.0300 -0.3026
    1DIPC   D3B18131  19.117  21.903   4.571 -0.2752 -0.0978 -0.0621
    1DIPC   C4B18132  18.873  21.795   4.272  0.3113 -0.0616  0.3220
    1DIPC   NC318133   4.245  28.650   2.723 -0.1813 -0.0658  0.1090
    1DIPC   PO418134   4.192  28.308   3.019  0.2124 -0.1753 -0.2940
    1DIPC   GL118135   4.242  28.370   3.360 -0.0190  0.0411 -0.0810
    1DIPC   GL218136   3.973  28.554   3.477 -0.0761  0.1164  0.1786
    1DIPC   C1A18137   4.267  28.475   3.852  0.2686 -0.0436  0.2112
    1DIPC   D2A18138   4.112  28.205   4.238 -0.0729 -0.2381 -0.0308
    1DIPC   D3A18139   4.238  27.967   4.608  0.3641  0.2149  0.1497
    1DIPC   C4A18140   4.346  27.467   4.439  0.1215 -0.2865  0.0958
    1DIPC   C1B18141   3.974  28.833   3.733 -0.0982  0.6084  0.0576
    1DIPC   D2B18142   4.109  28.887   4.122  0.1014  0.0879 -0.3685
    1DIPC   D3B18143   3.792  28.622   4.405 -0.0401 -0.1601  0.0880
    1DIPC   C4B18144   3.345  28.738   4.565 -0.3006  0.1493  0.2466
    1DIPC   NC318145  28.205  15.675   2.093 -0.1124  0.0040  0.6070
    1DIPC   PO418146  28.444  15.404   2.346  0.5559  0.1864  0.1757
    1DIPC   GL118147  28.218  15.670   2.544 -0.0799  0.0378 -0.4388
    1DIPC   GL218148  27.991  16.002   2.465 -0.0207 -0.1104  0.1327
    1DIPC   C1A18149  27.889  15.557   2.671 -0.1710 -0.1755  0.2885
    1DIPC   D2A18150  27.802  15.452   3.130 -0.0410 -0.1080 -0.0114
    1DIPC   D3A18151  27.699  15.087   3.334 -0.1429  0.0540  0.1121
    1DIPC   C4A18152  27.319  15.020   3.436  0.1797 -0.3622 -0.1217
    1DIPC   C1B18153  28.105  15.959   3.027  0.0560  0.1711 -0.1004
    1DIPC   D2B18154  28.292  15.767   3.337 -0.0001  0.0634 -0.0305
    1DIPC   D3B18155  28.277  15.410   2.963 -0.3487 -0.1649 -0.0789
    1DIPC   C4B18156  28.141  15.067   3.030 -0.2503  0.3852  0.2173
    1DIPC   NC318157   3.570   0.094   3.340  0.0759  0.1557 -0.1257
    1DIPC   PO418158   3.693  -0.158   3.042 -0.1498  0.1090  0.2238
    1DIPC   GL118159   3.600  -0.410   3.421 -0.2866  0.0429 -0.0275
    1DIPC   GL218160   3.413  -0.272   3.607  0.1717  0.1993  0.0655
    1DIPC   C1A18161   3.565  -0.818   3.739 -0.1176 -0.1569 -0.0422
    1DIPC   D2A18162   3.713  -0.999   3.952 -0.2359 -0.0520 -0.0194
    1DIPC   D3A18163   3.792  -1.280   3.598  0.3919  0.0037  0.3667
    1DIPC   C4A18164   4.199  -1.440   3.730 -0.0241 -0.4622  0.1252
    1DIPC   C1B18165   3.147  -0.064   3.832 -0.1422 -0.0713 -0.1922
    1DIPC   D2B18166   3.082   0.280   4.087  0.1615  0.1364 -0.3966
    1DIPC   D3B18167   2.971   0.252   4.573 -0.2153  0.1634  0.2403
    1DIPC   C4B18168   3.302  -0.048   4.836 -0.1190  0.2019 -0.0513
    1DIPC   NC318169  16.353   6.906   3.653 -0.0291 -0.0954  0.1600
    1DIPC   PO418170  16.778   7.123   3.750 -0.1260 -0.1528  0.1075
    1DIPC   GL118171  16.925   7.295   4.122 -0.3854 -0.3257 -0.3284
    1DIPC   GL218172  16.733   7.074   4.262  0.0481  0.1609 -0.1920
    1DIPC   C1A18173  17.224   7.281   4.408 -0.2663  0.0432  0.1911
    1DIPC   D2A18174  17.269   7.479   4.830 -0.4608 -0.1817  0.1243
    1DIPC   D3A18175  17.152   7.921   4.977  0.2903  0.1922  0.0306
    1DIPC   C4A18176  16.709   8.054   5.112  0.0679  0.2210 -0.0987
    1DIPC   C1B18177  16.801   7.352   4.641 -0.0394  0.0351  0.0141
    1DIPC   D2B18178  16.875   7.689   4.453 -0.0414 -0.0932  0.2422
    1DIPC   D3B18179  16.844   7.997   4.619  0.2119 -0.0794  0.2436
    1DIPC   C4B18180  17.094   8.179   4.502  0.1445 -0.2315 -0.1643
    1DIPC   NC318181  10.739  20.413   2.380  0.2309  0.2297 -0.1716
    1DIPC   PO418182  10.873  20.835   2.529 -0.3671 -0.1817  0.1327
    1DIPC   GL118183  11.128  20.851   2.810 -0.0350 -0.0644  0.1171
    1DIPC   GL218184  10.941  20.758   3.041  0.2422 -0.3677 -0.0034
    1DIPC   C1A18185  11.502  20.943   2.966  0.1427 -0.0816  0.0406
    1DIPC   D2A18186  11.897  21.111   3.077 -0.0029 -0.1398 -0.0202
    1DIPC   D3A18187  12.145  21.154   3.550  0.2275 -0.1738  0.2381
    1DIPC   C4A18188  12.040  21.471   3.843 -0.0171 -0.0806  0.2042
    1DIPC   C1B18189  10.993  20.988   3.392  0.0018  0.1525  0.0444
    1DIPC   D2B18190  10.831  21.008   3.804  0.0701  0.2182 -0.0129
    1DIPC   D3B18191  10.776  20.756   4.219  0.1817 -0.0674 -0.2024
    1DIPC   C4B18192  10.760  20.403   4.503 -0.2471  0.0691  0.2695
    1DIPC   NC318193  20.567   4.150   2.629 -0.2065 -0.1098  0.0867
    1DIPC   PO418194  20.967   3.976   2.825  0.1410  0.0803 -0.2189
    1DIPC   GL118195  21.211   3.939   3.140 -0.1038 -0.1117 -0.0404
    1DIPC   GL218196  20.929   3.844   3.392 -0.0743  0.2072 -0.2262
    1DIPC   C1A18197  21.540   4.178   3.364  0.0074  0.4313 -0.0387
    1DIPC   D2A18198  21.778   4.345   3.629 -0.1841  0.0127 -0.1413
    1DIPC   D3A18199  21.980   3.982   3.399 -0.0968  0.0905 -0.1908
    1DIPC   C4A18200  22.409   3.969   3.375  0.2500 -0.0959  0.2206
    1DIPC   C1B18201  21.220   3.879   3.686 -0.0471 -0.2410 -0.0406
    1DIPC   D2B18202  21.331   3.513   3.965  0.1472  0.2802 -0.1625
    1DIPC   D3B18203  20.953   3.245   4.179 -0.0857 -0.1552 -0.0590
    1DIPC   C4B18204  20.761   2.885   4.013  0.0166  0.0745 -0.0115
    1DIPC   NC318205  17.079   1.522   3.406  0.1381 -0.0555  0.0397
    1DIPC   PO418206  16.890   1.878   3.603 -0.1343 -0.0006 -0.0172
    1DIPC   GL118207  16.605   1.944   3.907 -0.0782 -0.1054 -0.0270
    1DIPC   GL218208  16.616   2.219   4.168  0.0355 -0.1019  0.0311
    1DIPC   C1A18209  16.334   1.719   4.237  0.0972  0.0109  0.0365
    1DIPC   D2A18210  16.055   1.986   4.495  0.3925  0.1250  0.0722
    1DIPC   D3A18211  16.015   1.717   4.918  0.2094 -0.1316  0.1828
    1DIPC   C4A18212  15.706   1.605   5.254 -0.0455  0.1394 -0.0852
    1DIPC   C1B18213  16.592   2.009   4.629  0.0458 -0.1372 -0.0529
    1DIPC   D2B18214  16.820   1.832   5.012  0.1080  0.1664  0.1234
    1DIPC   D3B18215  17.171   1.870   5.247 -0.2372 -0.3051 -0.2955
    1DIPC   C4B18216  17.186   1.566   5.520 -0.2640  0.3072 -0.2522
    1DIPC   NC318217  15.661  24.939   3.078  0.0092  0.0600  0.0529
    1DIPC   PO418218  15.722  25.412   3.158  0.2876 -0.0481 -0.0865
    1DIPC   GL118219  15.375  25.272   3.400 -0.0464 -0.3235 -0.0991
    1DIPC   GL218220  15.269  25.096   3.566  0.1569 -0.1294 -0.1653
    1DIPC   C1A18221  14.910  25.446   3.400  0.1776 -0.1774  0.0493
    1DIPC   D2A18222  14.696  25.676   3.754 -0.1795 -0.1106  0.0263
    1DIPC   D3A18223  14.928  25.258   4.003 -0.3592  0.1334 -0.1285
    1DIPC   C4A18224  15.302  25.237   4.330  0.1636  0.0436 -0.1188
    1DIPC   C1B18225  15.394  24.861   3.887 -0.0475 -0.2147 -0.1346
    1DIPC   D2B18226  15.623  24.655   4.202  0.2009 -0.1744 -0.1689
    1DIPC   D3B18227  15.342  24.377   4.045 -0.3144 -0.3233  0.0905
    1DIPC   C4B18228  14.869  24.415   4.050 -0.1017  0.0603 -0.3710
    1DIPC   NC318229   1.942  15.572   1.600 -0.0098 -0.2485  0.0295
    1DIPC   PO418230   2.011  15.570   2.004 -0.0244 -0.0389 -0.1575
    1DIPC   GL118231   1.944  15.695   2.346 -0.1316  0.3080 -0.1780
    1DIPC   GL218232   1.606  15.538   2.403  0.1638  0.1437  0.0284
    1DIPC   C1A18233   2.140  15.855   2.819  0.1533  0.2831  0.0051
    1DIPC   D2A18234   2.132  15.843   3.176  0.2495 -0.0079  0.1141
    1DIPC   D3A18235   1.994  16.179   3.535  0.1851 -0.0069 -0.0279
    1DIPC   C4A18236   2.354  16.010   3.801  0.1919  0.0050 -0.0001
    1DIPC   C1B18237   1.738  15.526   2.853 -0.0219 -0.3765 -0.2229
    1DIPC   D2B18238   1.697  15.603   3.272  0.0473 -0.0330 -0.0882
    1DIPC   D3B18239   1.432  15.724   3.654 -0.0244 -0.0955 -0.2792
    1DIPC   C4B18240   1.383  15.431   4.081  0.1248  0.0777 -0.1214
    1DIPC   NC318241  24.962   3.952   2.457 -0.1016  0.0769  0.1940
    1DIPC   PO418242  25.167   3.887   2.794  0.1733 -0.0481  0.0795
    1DIPC   GL118243  25.135   3.942   3.183  0.1657 -0.1840  0.0900
    1DIPC   GL218244  25.371   4.217   3.252  0.3547  0.0213 -0.1674
    1DIPC   C1A18245  24.973   4.077   3.565 -0.0533 -0.1363 -0.2939
    1DIPC   D2A18246  24.628   3.854   3.895 -0.1351 -0.0036 -0.3294
    1DIPC   D3A18247  24.879   4.078   4.147 -0.1235 -0.1571 -0.2305
    1DIPC   C4A18248  24.806   4.466   4.335 -0.2814  0.3598 -0.3583
    1DIPC   C1B18249  25.349   4.436   3.602  0.1664 -0.2162  0.0154
    1DIPC   D2B18250  25.357   4.284   4.085 -0.0017 -0.2436  0.2864
    1DIPC   D3B18251  25.747   4.153   3.753  0.1475 -0.3574 -0.3505
    1DIPC   C4B18252  26.001   3.793   3.729 -0.0751  0.2911  0.1501
    1DIPC   NC318253  18.944  22.186   2.342 -0.0013 -0.0276  0.1942
    1DIPC   PO418254  19.106  22.398   2.791 -0.0731  0.0674 -0.0391
    1DIPC   GL118255  19.264  22.510   3.242  0.0279  0.1556  0.0126
    1DIPC   GL218256  19.227  22.267   3.388 -0.0411 -0.2790 -0.1846
    1DIPC   C1A18257  19.574  22.609   3.611 -0.2468 -0.3135 -0.1711
    1DIPC   D2A18258  19.932  22.952   3.721  0.5823 -0.3543 -0.1811
    1DIPC   D3A18259  19.731  23.308   4.057  0.0622 -0.0894  0.0503
    1DIPC   C4A18260  19.495  23.261   4.412 -0.0667 -0.1583 -0.0121
    1DIPC   C1B18261  19.073  22.504   3.702 -0.0302  0.0099  0.0783
    1DIPC   D2B18262  18.921  22.759   3.993  0.0290 -0.1004  0.0651
    1DIPC   D3B18263  18.728  23.093   3.746  0.0370 -0.0644 -0.0407
    1DIPC   C4B18264  18.726  23.382   4.083  0.2922 -0.4434  0.1233
    1DIPC   NC318265   5.276  29.308   3.223 -0.3050  0.0883 -0.1940
    1DIPC   PO418266   5.715  29.317   3.354  0.0213  0.0770  0.0585
    1DIPC   GL118267   5.652  29.548   3.791  0.1297 -0.0947  0.0320
    1DIPC   GL218268   5.486  29.738   3.612  0.0053  0.3793 -0.3597
    1DIPC   C1A18269   5.925  29.544   4.159  0.0862 -0.2576  0.0369
    1DIPC   D2A18270   5.873  29.346   4.591  0.2734  0.0336  0.2125
    1DIPC   D3A18271   5.833  29.785   4.595  0.0110  0.0781 -0.1064
    1DIPC   C4A18272   5.667  30.219   4.865  0.1240  0.1159  0.2412
    1DIPC   C1B18273   5.114  29.709   4.011 -0.0494  0.0369 -0.0201
    1DIPC   D2B18274   4.951  29.985   4.223  0.1750 -0.2504 -0.1198
    1DIPC   D3B18275   4.639  29.845   4.609  0.1177  0.1686  0.1837
    1DIPC   C4B18276   4.827  30.108   4.946 -0.0148  0.1881 -0.3074
    1DIPC   NC318277  25.566  18.517   2.567 -0.3586 -0.0471 -0.0531
    1DIPC   PO418278  25.060  18.568   2.537  0.1512  0.0511  0.0436
    1DIPC   GL118279  25.049  18.320   2.810 -0.1285 -0.1340  0.0790
    1DIPC   GL218280  24.710  18.257   2.804  0.1200 -0.2674 -0.0426
    1DIPC   C1A18281  25.264  18.349   3.253 -0.0977  0.2729  0.0400
    1DIPC   D2A18282  25.381  18.601   3.560  0.1181 -0.1839  0.3597
    1DIPC   D3A18283  25.427  18.710   3.962 -0.3182 -0.3481 -0.0513
    1DIPC   C4A18284  25.065  18.542   4.241 -0.3523  0.2280 -0.1691
    1DIPC   C1B18285  24.740  17.925   3.039  0.1913 -0.0629 -0.2258
    1DIPC   D2B18286  24.981  17.914   3.488  0.1569 -0.0271  0.1730
    1DIPC   D3B18287  25.372  17.854   3.332  0.3375 -0.1470 -0.1317
    1DIPC   C4B18288  25.775  18.157   3.439  0.0288 -0.1906  0.1759
    1DIPC   NC318289   9.897  28.321   3.946 -0.0382 -0.5103 -0.1842
    1DIPC   PO418290  10.150  27.867   3.986  0.1469  0.1263 -0.0747
    1DIPC   GL118291  10.337  27.638   4.215  0.0768  0.2042 -0.1103
    1DIPC   GL218292  10.541  27.880   4.340  0.1242 -0.1006 -0.0207
    1DIPC   C1A18293  10.139  27.334   4.520  0.1730  0.0657  0.1325
    1DIPC   D2A18294   9.968  27.048   4.437  0.2976 -0.0230  0.2066
    1DIPC   D3A18295  10.334  26.802   4.316  0.1356 -0.1554 -0.2431
    1DIPC   C4A18296  10.700  26.778   4.420 -0.0897 -0.1434 -0.2086
    1DIPC   C1B18297  10.341  27.790   4.753  0.0679  0.0698  0.1711
    1DIPC   D2B18298  10.423  27.442   4.940  0.1008 -0.0168  0.1832
    1DIPC   D3B18299   9.972  27.380   5.004  0.2694 -0.0620  0.0283
    1DIPC   C4B18300   9.774  27.023   4.932 -0.1180 -0.0613 -0.0986
    1DIPC   NC318301   9.792   3.996   3.744 -0.2097 -0.0925 -0.0957
    1DIPC   PO418302  10.167   3.703   3.653 -0.2136  0.0099  0.5203
    1DIPC   GL118303  10.353   3.419   3.875 -0.0100 -0.0068  0.0840
    1DIPC   GL218304  10.570   3.348   3.938  0.2788  0.0494  0.0432
    1DIPC   C1A18305  10.136   3.076   4.049  0.0055  0.2614 -0.1043
    1DIPC   D2A18306   9.933   2.849   4.501 -0.0009 -0.2483  0.2244
    1DIPC   D3A18307  10.239   3.129   4.688 -0.0961 -0.2164 -0.1150
    1DIPC   C4A18308  10.429   3.379   5.043 -0.2330  0.1787  0.4840
    1DIPC   C1B18309  10.519   3.314   4.340  0.0533 -0.2386  0.1162
    1DIPC   D2B18310  10.479   3.662   4.677 -0.3630  0.0497  0.0714
    1DIPC   D3B18311  10.060   3.705   4.743  0.2065  0.3604 -0.0572
    1DIPC   C4B18312   9.840   3.406   4.684 -0.0183  0.1315 -0.0753
    1DIPC   NC318313  14.804  21.842   2.674 -0.0205 -0.0050 -0.2236
    1DIPC   PO418314  15.146  21.630   2.593 -0.0409 -0.2639 -0.1219
    1DIPC   GL118315  15.137  21.769   3.020 -0.2499 -0.1159 -0.1897
    1DIPC   GL218316  14.913  21.599   3.098 -0.0286 -0.1116 -0.0176
    1DIPC   C1A18317  15.006  22.078   3.274 -0.2443 -0.0374 -0.1382
    1DIPC   D2A18318  14.763  22.385   3.501  0.3198 -0.0480  0.0589
    1DIPC   D3A18319  14.298  22.364   3.595 -0.1444 -0.2973 -0.1649
    1DIPC   C4A18320  14.172  22.619   3.933 -0.0695  0.2883  0.0798
    1DIPC   C1B18321  14.539  21.420   3.341  0.0552 -0.1089 -0.0599
    1DIPC   D2B18322  14.427  21.295   3.866 -0.0298 -0.0750 -0.1144
    1DIPC   D3B18323  14.508  21.348   4.331  0.1905 -0.1357 -0.0124
    1DIPC   C4B18324  14.597  21.046   4.639  0.2320 -0.0128  0.0885
    1DIPC   NC318325   3.147  10.840   2.458 -0.0475 -0.1824 -0.0550
    1DIPC   PO418326   3.351  11.091   2.729  0.1163 -0.2563 -0.2582
    1DIPC   GL118327   3.196  10.903   3.091  0.1992 -0.2756 -0.0906
    1DIPC   GL218328   3.543  11.007   3.230  0.3517 -0.1477 -0.0997
    1DIPC   C1A18329   3.118  11.208   3.457 -0.3969 -0.0830 -0.1986
    1DIPC   D2A18330   2.770  11.498   3.748 -0.0489 -0.1256 -0.2510
    1DIPC   D3A18331   2.743  11.891   3.425 -0.1142 -0.0851 -0.0016
    1DIPC   C4A18332   2.646  12.204   3.738 -0.1119 -0.0531  0.0107
    1DIPC   C1B18333   3.671  10.808   3.657 -0.0803  0.1394  0.1182
    1DIPC   D2B18334   3.677  10.823   4.112 -0.2647 -0.1343  0.0021
    1DIPC   D3B18335   3.547  11.249   4.286 -0.0393 -0.0652 -0.0795
    1DIPC   C4B18336   3.351  11.054   4.609 -0.2105  0.0847 -0.0889
    1DIPC   NC318337  21.438   6.147   3.056 -0.1577 -0.1287  0.1613
    1DIPC   PO418338  21.482   5.692   3.050 -0.1517  0.0648  0.0288
    1DIPC   GL118339  21.759   5.592   3.392 -0.0825 -0.0046 -0.1531
    1DIPC   GL218340  22.113   5.530   3.562  0.1172  0.0231 -0.2094
    1DIPC   C1A18341  21.679   5.243   3.792 -0.0386  0.1876 -0.1232
    1DIPC   D2A18342  21.855   5.188   4.244  0.0851  0.0062  0.1217
    1DIPC   D3A18343  21.711   4.755   4.522 -0.0732 -0.1840 -0.0527
    1DIPC   C4A18344  21.303   4.845   4.689 -0.0435 -0.1659 -0.0950
    1DIPC   C1B18345  22.214   5.410   3.998 -0.1564 -0.1291  0.0815
    1DIPC   D2B18346  22.199   5.444   4.490 -0.2819  0.0049  0.1397
    1DIPC   D3B18347  21.911   5.694   4.764 -0.0828  0.2168 -0.0178
    1DIPC   C4B18348  22.147   5.839   5.172  0.0285  0.0267  0.0057
    1DIPC   NC318349   1.189  22.599   2.503  0.1617  0.0107  0.0027
    1DIPC   PO418350   1.056  22.138   2.447  0.4022  0.3388  0.0695
    1DIPC   GL118351   1.096  21.991   2.834  0.0312 -0.0518  0.0903
    1DIPC   GL218352   1.274  22.316   2.876 -0.0306 -0.1032 -0.1240
    1DIPC   C1A18353   1.002  21.703   3.137  0.0017  0.3205  0.1608
    1DIPC   D2A18354   0.901  21.352   3.411 -0.0531  0.1433  0.1337
    1DIPC   D3A18355   0.881  21.356   3.790 -0.0233 -0.1990 -0.1402
    1DIPC   C4A18356   0.687  21.662   4.131 -0.1246 -0.0614  0.1363
    1DIPC   C1B18357   1.094  22.183   3.285 -0.2807 -0.0837 -0.0680
    1DIPC   D2B18358   0.776  21.959   3.631  0.0607  0.3312 -0.0489
    1DIPC   D3B18359   0.546  22.175   3.469 -0.1603 -0.4149  0.0185
    1DIPC   C4B18360   0.527  22.647   3.487  0.0996  0.1245  0.0541
    1DIPC   NC318361  25.743   8.334   2.374  0.0104  0.1407  0.2961
    1DIPC   PO418362  25.398   8.105   2.439  0.1401 -0.0845  0.1301
    1DIPC   GL118363  25.263   7.994   2.847  0.1066  0.1876  0.1183
    1DIPC   GL218364  25.091   7.786   2.746 -0.0385  0.2364 -0.0937
    1DIPC   C1A18365  25.226   8.226   3.192  0.1097 -0.1341 -0.0284
    1DIPC   D2A18366  25.098   8.176   3.660  0.0956 -0.1597  0.1541
    1DIPC   D3A18367  25.043   8.616   3.478 -0.2664 -0.1417  0.0967
    1DIPC   C4A18368  25.103   8.978   3.751  0.1484  0.1831  0.3372
    1DIPC   C1B18369  24.936   7.629   3.150  0.0952  0.0367  0.3648
    1DIPC   D2B18370  25.128   7.692   3.563 -0.1411 -0.1460  0.0070
    1DIPC   D3B18371  25.040   7.519   3.933 -0.0698  0.2320 -0.1357
    1DIPC   C4B18372  24.930   7.740   4.308  0.1223 -0.0695 -0.3378
    1DIPC   NC318373   5.690   4.699   3.007 -0.0865 -0.3225  0.0003
    1DIPC   PO418374   5.241   4.683   2.914 -0.0561  0.2159 -0.0660
    1DIPC   GL118375   5.053   4.679   3.329  0.0564  0.0981 -0.4358
    1DIPC   GL218376   4.681   4.755   3.292 -0.1996  0.0012 -0.0440
    1DIPC   C1A18377   4.891   4.885   3.704  0.4277  0.0108 -0.2420
    1DIPC   D2A18378   4.645   5.083   4.006 -0.0144  0.2737  0.2183
    1DIPC   D3A18379   4.854   4.996   4.468  0.0560 -0.2248 -0.0618
    1DIPC   C4A18380   4.709   5.191   4.801 -0.1997 -0.1838  0.2429
    1DIPC   C1B18381   4.396   4.686   3.605 -0.0167 -0.0047  0.2399
    1DIPC   D2B18382   4.200   4.593   4.035 -0.1000 -0.0017 -0.2539
    1DIPC   D3B18383   4.378   4.234   4.089 -0.0147 -0.0225  0.3965
    1DIPC   C4B18384   4.400   3.909   3.769  0.1409 -0.0024  0.2607
    1DIPC   NC318385  11.652  26.219   3.313 -0.0982  0.0502  0.1071
    1DIPC   PO418386  11.368  26.327   3.699 -0.1488 -0.1157  0.0104
    1DIPC   GL118387  11.160  26.242   4.013  0.1639  0.4720 -0.4624
    1DIPC   GL218388  11.375  26.541   4.187  0.2206  0.1557  0.1492
    1DIPC   C1A18389  10.988  26.242   4.431  0.0799  0.0103  0.0229
    1DIPC   D2A18390  10.672  26.094   4.688 -0.2968 -0.0633  0.2363
    1DIPC   D3A18391  10.506  26.459   4.778 -0.3939 -0.0963  0.1585
    1DIPC   C4A18392   9.977  26.535   4.598  0.1548  0.4332  0.2419
    1DIPC   C1B18393  11.485  26.640   4.638 -0.4580  0.1593  0.4220
    1DIPC   D2B18394  11.544  26.643   5.073  0.0197  0.0434 -0.0645
    1DIPC   D3B18395  11.195  26.330   5.233  0.3690  0.0743 -0.1645
    1DIPC   C4B18396  10.756  26.308   5.185 -0.0954 -0.4496  0.2552
    1DIPC   NC318397   0.250  27.400   2.894 -0.3093  0.0565 -0.1666
    1DIPC   PO418398  -0.071  27.352   2.960  0.0014  0.1563 -0.1023
    1DIPC   GL118399  -0.072  27.222   3.383 -0.0579 -0.0131 -0.2045
    1DIPC   GL218400  -0.265  26.956   3.418  0.2167  0.1962 -0.1599
    1DIPC   C1A18401  -0.146  27.230   3.813  0.0502  0.0608  0.2160
    1DIPC   D2A18402  -0.268  27.400   4.228  0.2939 -0.0321  0.1869
    1DIPC   D3A18403  -0.561  27.715   4.403  0.3688  0.0216  0.0854
    1DIPC   C4A18404  -0.547  28.088   4.384 -0.2577 -0.2195  0.3077
    1DIPC   C1B18405  -0.640  27.229   3.531 -0.1914 -0.0232  0.1663
    1DIPC   D2B18406  -0.691  27.428   3.936  0.2850  0.2393 -0.1974
    1DIPC   D3B18407  -0.438  27.812   3.926 -0.0773 -0.0335  0.1373
    1DIPC   C4B18408  -0.106  27.986   4.237  0.0371  0.0045 -0.1777
    1DIPC   NC318409  23.945  14.958   2.434  0.2702 -0.1142 -0.4450
    1DIPC   PO418410  24.365  14.834   2.307  0.0442 -0.1290 -0.3376
    1DIPC   GL118411  24.488  15.111   2.739 -0.0753 -0.1663  0.2128
    1DIPC   GL218412  24.579  15.406   2.685  0.0454 -0.0139 -0.1622
    1DIPC   C1A18413  24.425  15.090   3.206 -0.2748  0.2252 -0.0015
    1DIPC   D2A18414  24.154  14.881   3.515 -0.0941 -0.0687 -0.0033
    1DIPC   D3A18415  24.465  14.665   3.684 -0.0942  0.0204 -0.0560
    1DIPC   C4A18416  24.406  14.946   4.080 -0.2522 -0.0250  0.0640
    1DIPC   C1B18417  24.492  15.706   3.060 -0.2318 -0.1934 -0.0133
    1DIPC   D2B18418  24.438  15.698   3.570 -0.2469  0.0280  0.2403
    1DIPC   D3B18419  24.783  15.546   3.878  0.1666 -0.2980  0.1736
    1DIPC   C4B18420  24.758  15.644   4.284 -0.3437  0.1015 -0.3073
    1DIPC   NC318421  22.887   0.264   2.576 -0.1719  0.1770 -0.1446
    1DIPC   PO418422  22.925   0.660   2.534 -0.4226 -0.0731  0.0955
    1DIPC   GL118423  22.982   0.589   2.947  0.1158 -0.2715  0.0709
    1DIPC   GL218424  23.126   0.264   3.068  0.0867 -0.1521  0.1103
    1DIPC   C1A18425  22.876   0.779   3.188  0.0905  0.0744  0.2428
    1DIPC   D2A18426  22.554   0.625   3.483  0.0987 -0.3319 -0.1415
    1DIPC   D3A18427  22.542   1.129   3.417  0.0423  0.3862 -0.0824
    1DIPC   C4A18428  22.573   1.438   3.652 -0.2413  0.0165 -0.1802
    1DIPC   C1B18429  23.233   0.042   3.467 -0.0400 -0.2913  0.1058
    1DIPC   D2B18430  23.027  -0.131   3.800 -0.1192 -0.1030  0.0330
    1DIPC   D3B18431  23.065   0.185   3.941  0.0667 -0.0432  0.3248
    1DIPC   C4B18432  23.046   0.530   3.635 -0.1631  0.2201  0.2492
    1DIPC   NC318433   5.477  25.907   2.736 -0.0279 -0.0349  0.2069
    1DIPC   PO418434   5.541  26.298   2.969  0.1795 -0.2720 -0.0203
    1DIPC   GL118435   5.525  25.933   3.217  0.1349 -0.3492  0.1378
    1DIPC   GL218436   5.726  25.918   3.344  0.0252  0.2773  0.0338
    1DIPC   C1A18437   5.254  25.729   3.372  0.1438 -0.1379 -0.3874
    1DIPC   D2A18438   4.954  25.474   3.392 -0.1612  0.2035 -0.4989
    1DIPC   D3A18439   4.734  25.826   3.482  0.2497  0.2917  0.1435
    1DIPC   C4A18440   4.261  25.773   3.576 -0.0701 -0.1605  0.1427
    1DIPC   C1B18441   5.590  25.781   3.746  0.1226 -0.6601 -0.1060
    1DIPC   D2B18442   5.455  25.867   4.127  0.1740 -0.1720 -0.0566
    1DIPC   D3B18443   5.293  25.736   4.443  0.1181  0.1638  0.0374
    1DIPC   C4B18444   5.209  25.305   4.407  0.2544 -0.0558  0.2022
    1DIPC   NC318445   1.222  16.164   1.808  0.1344 -0.1230  0.0067
    1DIPC   PO418446   1.327  16.281   2.147 -0.0695 -0.0285 -0.5214
    1DIPC   GL118447   1.334  16.414   2.552  0.0909 -0.2331  0.1238
    1DIPC   GL218448   1.365  16.701   2.692 -0.0336  0.1702  0.4281
    1DIPC   C1A18449   1.633  16.282   2.823  0.0285 -0.0817 -0.1491
    1DIPC   D2A18450   1.718  16.051   3.038 -0.0720 -0.2868  0.2906
    1DIPC   D3A18451   1.504  16.178   3.411  0.2492  0.1946 -0.1515
    1DIPC   C4A18452   1.195  16.149   3.706  0.1178 -0.0511  0.1270
    1DIPC   C1B18453   1.314  16.688   3.064 -0.0907 -0.2190 -0.0910
    1DIPC   D2B18454   1.138  16.628   3.452  0.1083 -0.1050 -0.3196
    1DIPC   D3B18455   1.409  16.588   3.842 -0.0822  0.0909  0.0886
    1DIPC   C4B18456   1.674  16.210   3.976  0.1006  0.1189  0.0890
    1DIPC   NC318457  20.252  26.584   3.006 -0.1337 -0.1731 -0.0022
    1DIPC   PO418458  20.132  26.253   3.217 -0.0835  0.1622  0.2429
    1DIPC   GL118459  20.323  26.195   3.672 -0.2509 -0.0979 -0.0460
    1DIPC   GL218460  20.425  25.898   3.648  0.1640  0.0175  0.1201
    1DIPC   C1A18461  20.468  26.373   4.036  0.0887  0.0137  0.1065
    1DIPC   D2A18462  20.471  26.825   4.219 -0.1426 -0.1961  0.1468
    1DIPC   D3A18463  20.667  27.022   3.866 -0.0659 -0.1590 -0.1284
    1DIPC   C4A18464  21.107  26.997   3.922  0.0491 -0.1752 -0.1612
    1DIPC   C1B18465  20.609  25.946   4.147  0.0394 -0.0747 -0.1351
    1DIPC   D2B18466  20.659  25.843   4.602 -0.1071  0.1440  0.2985
    1DIPC   D3B18467  20.830  25.869   4.954  0.0851  0.0804  0.2481
    1DIPC   C4B18468  20.662  25.671   5.225 -0.2341  0.1220  0.0972
    1DIPC   NC318469  26.783  17.913   2.980 -0.0215 -0.2239 -0.1525
    1DIPC   PO418470  26.880  18.152   3.221  0.2291  0.1611  0.0940
    1DIPC   GL118471  26.827  17.996   3.626  0.3435  0.3175 -0.2184
    1DIPC   GL218472  27.075  17.835   3.582 -0.1454  0.2184  0.3055
    1DIPC   C1A18473  26.760  17.710   4.059  0.0761  0.1179 -0.3378
    1DIPC   D2A18474  26.926  17.696   4.395 -0.3156 -0.2477  0.1721
    1DIPC   D3A18475  26.695  18.033   4.713 -0.1905 -0.1013  0.2064
    1DIPC   C4A18476  26.419  17.820   5.007  0.4525  0.0753 -0.1746
    1DIPC   C1B18477  27.365  17.794   3.904  0.1891 -0.0290 -0.1679
    1DIPC   D2B18478  27.467  17.518   4.179 -0.0581 -0.2912  0.4591
    1DIPC   D3B18479  27.927  17.598   3.910  0.0222 -0.0685 -0.1523
    1DIPC   C4B18480  28.358  17.815   4.043 -0.0267  0.1219 -0.0567
    1DIPC   NC318481   6.842   8.378   3.128  0.0164 -0.3326 -0.1013
    1DIPC   PO418482   7.171   8.009   3.158  0.1243 -0.0710 -0.0282
    1DIPC   GL118483   7.012   7.977   3.530  0.2039  0.1655  0.1137
    1DIPC   GL218484   7.096   7.744   3.710  0.1927 -0.1334  0.1155
    1DIPC   C1A18485   6.721   8.085   3.893 -0.2774 -0.1230  0.1729
    1DIPC   D2A18486   6.580   8.166   4.262  0.0694 -0.0670 -0.0370
    1DIPC   D3A18487   6.405   8.521   4.378  0.1157 -0.1719  0.1821
    1DIPC   C4A18488   6.293   8.881   4.220  0.5382 -0.1531 -0.0828
    1DIPC   C1B18489   7.012   7.823   4.231 -0.1483  0.1019 -0.0437
    1DIPC   D2B18490   7.063   7.869   4.802 -0.1615 -0.3433  0.0149
    1DIPC   D3B18491   6.834   7.561   5.072 -0.1646 -0.0257  0.1105
    1DIPC   C4B18492   6.648   7.749   5.455 -0.1004  0.0867  0.0984
    1DIPC   NC318493   0.261   0.263   3.193 -0.0683 -0.3673 -0.1695
    1DIPC   PO418494   0.699   0.297   3.075 -0.0530  0.3019  0.0355
    1DIPC   GL118495   0.704   0.547   3.525 -0.1058  0.1939 -0.1956
    1DIPC   GL218496   0.630   0.861   3.660 -0.3281  0.1760  0.1865
    1DIPC   C1A18497   0.862   0.493   3.910  0.3156  0.0549 -0.2484
    1DIPC   D2A18498   0.699   0.558   4.416 -0.3032  0.1040  0.1310
    1DIPC   D3A18499   0.970   0.925   4.294  0.2666  0.2264 -0.1245
    1DIPC   C4A18500   1.427   0.908   4.440 -0.2370 -0.0542  0.3356
    1DIPC   C1B18501   0.553   0.930   4.073  0.0807  0.0399 -0.1353
    1DIPC   D2B18502   0.619   1.156   4.518 -0.0329 -0.1289 -0.2792
    1DIPC   D3B18503   0.688   1.375   4.971  0.2505  0.0693 -0.0180
    1DIPC   C4B18504   0.299   1.659   5.152  0.1042  0.0025  0.4706
    1DIPC   NC318505  27.888  16.642   2.151 -0.2095 -0.0009 -0.3512
    1DIPC   PO418506  27.774  16.276   2.009  0.1517  0.1981  0.0461
    1DIPC   GL118507  27.509  16.155   2.348  0.3661  0.0076 -0.1017
    1DIPC   GL218508  27.653  16.441   2.525  0.2259 -0.1351  0.0048
    1DIPC   C1A18509  27.542  15.962   2.782  0.0690  0.1158 -0.1065
    1DIPC   D2A18510  27.587  16.029   3.245  0.3444 -0.1003 -0.1332
    1DIPC   D3A18511  27.721  15.680   3.514  0.0716 -0.2886  0.1701
    1DIPC   C4A18512  28.029  15.366   3.605 -0.0093  0.0281  0.1683
    1DIPC   C1B18513  27.876  16.444   2.931 -0.0437  0.1629  0.1101
    1DIPC   D2B18514  28.046  16.295   3.394 -0.0187 -0.0166 -0.0947
    1DIPC   D3B18515  28.160  16.683   3.582 -0.3333  0.4764  0.0023
    1DIPC   C4B18516  28.027  17.097   3.705 -0.1061 -0.1427 -0.2127
    1DIPC   NC318517  14.599   4.983   3.745 -0.1216 -0.0704 -0.1888
    1DIPC   PO418518  14.684   4.595   3.890 -0.1124  0.4718 -0.3773
    1DIPC   GL118519  14.909   4.749   4.218  0.2033 -0.1038 -0.1448
    1DIPC   GL218520  14.947   4.538   4.514  0.4107  0.1408  0.1063
    1DIPC   C1A18521  15.159   5.072   4.451 -0.0030  0.0059 -0.4383
    1DIPC   D2A18522  15.179   5.340   4.750  0.0652  0.0165 -0.2798
    1DIPC   D3A18523  14.841   5.466   4.877  0.0904 -0.2288 -0.1398
    1DIPC   C4A18524  14.647   5.106   5.131  0.1257 -0.1896 -0.0494
    1DIPC   C1B18525  14.913   4.236   4.746  0.1359  0.2101  0.0216
    1DIPC   D2B18526  14.864   3.847   5.040 -0.0916  0.1046  0.0740
    1DIPC   D3B18527  14.862   4.157   5.377  0.0623  0.2860 -0.1555
    1DIPC   C4B18528  15.017   4.376   5.754  0.0496 -0.2950 -0.0951
    1DIPC   NC318529   7.541  16.510   2.307 -0.2174  0.1088  0.0807
    1DIPC   PO418530   7.647  16.102   2.547  0.1973  0.0368 -0.1713
    1DIPC   GL118531   7.496  16.059   2.899 -0.1784 -0.1152  0.0919
    1DIPC   GL218532   7.494  15.744   3.045 -0.0699 -0.0237  0.1784
    1DIPC   C1A18533   7.251  16.175   3.170  0.0339 -0.0110 -0.1136
    1DIPC   D2A18534   6.838  16.214   3.358  0.0240  0.0125 -0.0191
    1DIPC   D3A18535   7.175  16.290   3.682 -0.0302 -0.0447  0.0713
    1DIPC   C4A18536   7.189  16.325   4.125  0.2954  0.1142 -0.2942
    1DIPC   C1B18537   7.651  15.843   3.336 -0.1284 -0.3351 -0.1209
    1DIPC   D2B18538   7.674  16.145   3.625 -0.0213  0.0290 -0.2528
    1DIPC   D3B18539   7.684  16.017   4.104 -0.0509  0.1868 -0.0372
    1DIPC   C4B18540   7.282  15.874   4.323  0.1238 -0.0970  0.0134
    1DIPC   NC318541  13.465   2.767   3.738 -0.2843 -0.0866  0.3788
    1DIPC   PO418542  13.382   2.439   4.039  0.0140  0.1576  0.2172
    1DIPC   GL118543  13.370   2.647   4.373  0.1520 -0.0231 -0.1386
    1DIPC   GL218544  13.645   2.608   4.630 -0.2673  0.2626  0.0663
    1DIPC   C1A18545  13.517   3.028   4.407  0.1406  0.0694  0.0922
    1DIPC   D2A18546  13.600   3.491   4.331  0.1224 -0.0594 -0.0685
    1DIPC   D3A18547  13.905   3.317   4.668 -0.2301 -0.0641  0.0838
    1DIPC   C4A18548  14.029   3.419   5.164  0.1696  0.2172  0.2591
    1DIPC   C1B18549  13.386   2.826   4.996 -0.1844 -0.1069  0.0658
    1DIPC   D2B18550  13.584   3.178   5.219 -0.0349  0.0793 -0.2862
    1DIPC   D3B18551  13.537   3.557   5.011 -0.2921  0.2465  0.0403
    1DIPC   C4B18552  13.309   3.745   4.697 -0.1116 -0.1685  0.0059
    1DIPC   NC318553   6.902   6.138   2.850  0.0529 -0.1205  0.2579
    1DIPC   PO418554   6.967   6.290   3.307 -0.1637 -0.1529 -0.0047
    1DIPC   GL118555   6.859   6.173   3.741  0.2736 -0.3471  0.1280
    1DIPC   GL218556   6.959   5.984   4.006 -0.0196  0.0731 -0.0658
    1DIPC   C1A18557   6.525   6.259   4.037 -0.1773  0.3051 -0.0071
    1DIPC   D2A18558   6.470   6.106   4.555  0.2517  0.0364 -0.1276
    1DIPC   D3A18559   6.342   6.587   4.647  0.0136 -0.0821  0.2912
    1DIPC   C4A18560   6.426   6.860   4.890  0.0701  0.1263  0.2285
    1DIPC   C1B18561   6.868   5.973   4.318 -0.0524  0.2338  0.3344
    1DIPC   D2B18562   7.020   6.176   4.644 -0.0003 -0.0731  0.0294
    1DIPC   D3B18563   6.936   5.921   5.011  0.2941  0.0555  0.1444
    1DIPC   C4B18564   6.628   5.549   5.130 -0.4301  0.0977  0.1204
    1DIPC   NC318565  28.089  12.470   2.633 -0.2758  0.0565 -0.3004
    1DIPC   PO418566  28.235  12.842   2.890  0.0636 -0.2685  0.0056
    1DIPC   GL118567  28.244  12.744   3.319  0.2842 -0.2271  0.0055
    1DIPC   GL218568  28.469  12.635   3.593 -0.2438  0.2958 -0.1464
    1DIPC   C1A18569  28.075  12.848   3.790  0.0716  0.2834 -0.2821
    1DIPC   D2A18570  27.656  12.921   3.816  0.0355  0.1963 -0.0105
    1DIPC   D3A18571  27.355  13.135   4.050  0.0087 -0.0292  0.0783
    1DIPC   C4A18572  27.037  12.941   4.358 -0.0957  0.2025  0.3558
    1DIPC   C1B18573  28.343  12.411   4.025 -0.0762 -0.0807  0.3396
    1DIPC   D2B18574  28.228  12.121   4.398  0.0310 -0.0005  0.1591
    1DIPC   D3B18575  28.338  12.386   4.776  0.0256  0.1487 -0.0312
    1DIPC   C4B18576  28.700  12.448   5.095  0.1792 -0.1456 -0.4102
    1DIPC   NC318577  28.394   9.738   2.649 -0.3814  0.0811 -0.2531
    1DIPC   PO418578  28.037   9.413   2.830 -0.0427  0.1374 -0.0070
    1DIPC   GL118579  27.851   9.368   3.296  0.1673  0.1380 -0.0367
    1DIPC   GL218580  27.684   9.127   3.277 -0.0125 -0.2468 -0.2397
    1DIPC   C1A18581  27.750   9.396   3.698 -0.0026 -0.1449  0.0527
    1DIPC   D2A18582  27.718   9.261   3.999 -0.1165 -0.0777 -0.2416
    1DIPC   D3A18583  28.047   9.572   4.070 -0.1019 -0.0696 -0.2395
    1DIPC   C4A18584  28.254   9.768   4.288 -0.2308  0.1916 -0.4417
    1DIPC   C1B18585  27.407   8.927   3.634  0.0381 -0.0850  0.1737
    1DIPC   D2B18586  27.289   8.996   4.137  0.1496  0.0392  0.4402
    1DIPC   D3B18587  27.041   9.434   4.093  0.2417  0.1665  0.0662
    1DIPC   C4B18588  26.796   9.616   4.319  0.1446  0.0612 -0.2136
    1DIPC   NC318589  10.830  27.151   3.682 -0.3536 -0.1077 -0.2377
    1DIPC   PO418590  10.892  27.533   3.998 -0.4063 -0.2599  0.0615
    1DIPC   GL118591  11.005  27.818   4.278 -0.2008  0.0148 -0.4000
    1DIPC   GL218592  11.352  27.981   4.363 -0.0062 -0.3097 -0.0239
    1DIPC   C1A18593  10.914  28.023   4.646  0.0615  0.1809 -0.1796
    1DIPC   D2A18594  10.892  27.929   5.062  0.0839 -0.5435  0.0271
    1DIPC   D3A18595  11.307  27.811   4.904 -0.3027 -0.2112  0.2010
    1DIPC   C4A18596  11.299  27.519   4.569 -0.2061 -0.1884 -0.2442
    1DIPC   C1B18597  11.394  28.327   4.739  0.0046 -0.0910 -0.0182
    1DIPC   D2B18598  11.407  28.663   4.891 -0.1876  0.1113 -0.1332
    1DIPC   D3B18599  10.968  28.655   4.894  0.1613 -0.2608  0.2715
    1DIPC   C4B18600  10.785  28.529   5.223 -0.1168 -0.1231  0.1042
    1DIPC   NC318601   2.346  10.666   2.252  0.0914  0.1922 -0.1200
    1DIPC   PO418602   2.699  10.645   2.517  0.2075  0.0602 -0.1140
    1DIPC   GL118603   2.765  10.607   2.986 -0.0162  0.2384  0.0016
    1DIPC   GL218604   2.809  10.356   3.142  0.1227 -0.0255  0.0857
    1DIPC   C1A18605   2.744  10.947   3.334  0.0504  0.1676 -0.2380
    1DIPC   D2A18606   2.495  11.436   3.336 -0.1935 -0.0310  0.1318
    1DIPC   D3A18607   2.174  11.407   3.278 -0.0024  0.0599 -0.0592
    1DIPC   C4A18608   1.895  11.103   3.092 -0.2455  0.4121 -0.0623
    1DIPC   C1B18609   2.675  10.016   3.391 -0.0137 -0.2094  0.0514
    1DIPC   D2B18610   2.702   9.644   3.605 -0.0383 -0.4330  0.0256
    1DIPC   D3B18611   2.516   9.509   3.243  0.0935  0.2873  0.3265
    1DIPC   C4B18612   2.134   9.749   3.181 -0.0491  0.0722 -0.1128
    1DIPC   NC318613   6.336  23.554   2.663 -0.2897 -0.3767 -0.2250
    1DIPC   PO418614   6.205  23.927   2.837 -0.1495 -0.0927  0.3309
    1DIPC   GL118615   6.388  23.786   3.156  0.1210 -0.0334  0.0087
    1DIPC   GL218616   6.371  23.467   3.134 -0.0820  0.3953 -0.0864
    1DIPC   C1A18617   6.448  23.658   3.630  0.0363 -0.4007 -0.0232
    1DIPC   D2A18618   6.302  23.700   4.038 -0.0925  0.1162  0.2864
    1DIPC   D3A18619   6.263  23.233   3.859 -0.0786 -0.3210 -0.0595
    1DIPC   C4A18620   6.132  22.931   4.142  0.0708  0.1141 -0.1057
    1DIPC   C1B18621   6.615  23.185   3.485  0.0321  0.0260 -0.0270
    1DIPC   D2B18622   6.713  23.298   3.994  0.0071  0.2949  0.1884
    1DIPC   D3B18623   6.956  23.544   3.712 -0.0003  0.3436  0.0625
    1DIPC   C4B18624   6.876  23.534   3.247  0.0489  0.2478 -0.1211
    1DIPC   NC318625  11.801   0.015   4.207 -0.1374  0.1453 -0.4274
    1DIPC   PO418626  11.476   0.193   4.370 -0.0927 -0.0809 -0.0313
    1DIPC   GL118627  11.475  -0.060   4.616  0.0564 -0.1281  0.2540
    1DIPC   GL218628  11.669  -0.322   4.660  0.2227 -0.4310 -0.1430
    1DIPC   C1A18629  11.236  -0.254   4.878  0.1430 -0.0083 -0.1930
    1DIPC   D2A18630  11.488  -0.306   5.229  0.0636  0.1202  0.0692
    1DIPC   D3A18631  11.308  -0.658   5.366 -0.1141 -0.0080 -0.2672
    1DIPC   C4A18632  11.247  -1.119   5.177 -0.2056  0.4208  0.1197
    1DIPC   C1B18633  11.845  -0.015   4.954  0.1531  0.0408 -0.2195
    1DIPC   D2B18634  12.111   0.372   5.093 -0.1403 -0.1957 -0.2382
    1DIPC   D3B18635  12.369   0.140   5.357  0.3554  0.1172  0.0445
    1DIPC   C4B18636  12.439   0.508   5.576  0.0736 -0.6099  0.1480
    1DIPC   NC318637  19.119  21.477   2.950 -0.2703  0.1205 -0.0025
    1DIPC   PO418638  19.121  21.193   3.335 -0.1000  0.2177  0.4959
    1DIPC   GL118639  19.280  21.032   3.722 -0.3564  0.1714 -0.2916
    1DIPC   GL218640  19.542  20.847   3.686 -0.2298  0.0325  0.0561
    1DIPC   C1A18641  19.304  20.844   4.151  0.0009 -0.0840  0.0178
    1DIPC   D2A18642  19.091  20.458   4.401 -0.0808 -0.1177  0.1745
    1DIPC   D3A18643  18.991  20.614   4.779 -0.0355  0.0732 -0.3172
    1DIPC   C4A18644  18.678  20.744   5.050 -0.1370  0.0864 -0.2665
    1DIPC   C1B18645  19.855  21.017   3.958  0.0356 -0.3815 -0.3022
    1DIPC   D2B18646  20.040  20.866   4.384  0.1045  0.2160 -0.0335
    1DIPC   D3B18647  19.750  20.575   4.406  0.2533 -0.2073 -0.1359
    1DIPC   C4B18648  19.622  20.420   4.136 -0.3167 -0.3144  0.4531
    1DIPC   NC318649  13.292  25.313   3.197 -0.2281 -0.2172  0.0882
    1DIPC   PO418650  13.750  25.432   3.321  0.2197 -0.0363 -0.0397
    1DIPC   GL118651  13.569  25.431   3.642 -0.4232 -0.1329 -0.0024
    1DIPC   GL218652  13.175  25.570   3.723  0.2144 -0.1234  0.0515
    1DIPC   C1A18653  13.358  25.098   3.891 -0.0437 -0.0346  0.3432
    1DIPC   D2A18654  13.067  24.674   3.926 -0.5809  0.1238 -0.0675
    1DIPC   D3A18655  12.978  24.495   4.366  0.0801 -0.3176  0.0945
    1DIPC   C4A18656  12.858  24.216   4.501  0.1965  0.0998  0.2569
    1DIPC   C1B18657  13.359  25.536   4.141  0.0105  0.0718  0.0997
    1DIPC   D2B18658  13.275  25.484   4.589 -0.2218  0.1719 -0.2547
    1DIPC   D3B18659  13.275  25.834   4.586  0.2430 -0.1162  0.0232
    1DIPC   C4B18660  13.199  26.094   4.845 -0.1970  0.3470 -0.0602
    1DIPC   NC318661   4.857   8.542   2.763  0.2007 -0.0118 -0.1105
    1DIPC   PO418662   4.561   8.834   2.821 -0.3147  0.1836  0.0599
    1DIPC   GL118663   4.525   9.001   3.229  0.0518  0.0737 -0.1067
    1DIPC   GL218664   4.251   8.868   3.351  0.2085  0.1234  0.0537
    1DIPC   C1A18665   4.681   9.214   3.536 -0.1469  0.0138  0.2083
    1DIPC   D2A18666   4.729   9.062   3.963  0.0899  0.0144  0.1546
    1DIPC   D3A18667   4.407   9.151   4.281 -0.0869  0.3239  0.2769
    1DIPC   C4A18668   4.336   8.969   4.643  0.1092 -0.0816  0.0761
    1DIPC   C1B18669   3.984   8.542   3.609  0.3344  0.2341 -0.0082
    1DIPC   D2B18670   3.812   8.139   3.816 -0.0501  0.2034  0.0517
    1DIPC   D3B18671   3.612   8.299   4.157 -0.4993  0.3957  0.4156
    1DIPC   C4B18672   3.650   8.662   4.433 -0.0720  0.0278  0.0087
    1DIPC   NC318673  15.085  27.971   3.767  0.0625 -0.4512  0.0693
    1DIPC   PO418674  15.235  28.091   4.162  0.1116  0.0125  0.0257
    1DIPC   GL118675  15.389  28.260   4.611  0.0151  0.2069  0.1350
    1DIPC   GL218676  15.611  28.415   4.673  0.0540 -0.4037 -0.0418
    1DIPC   C1A18677  15.750  27.996   4.851 -0.1391 -0.0040 -0.0786
    1DIPC   D2A18678  16.179  27.960   4.717 -0.0160  0.0794 -0.0917
    1DIPC   D3A18679  16.401  27.847   5.148  0.0004 -0.0812 -0.2305
    1DIPC   C4A18680  16.523  27.474   5.297  0.0925 -0.1194 -0.0006
    1DIPC   C1B18681  15.540  28.364   5.102  0.3074 -0.4364  0.1051
    1DIPC   D2B18682  15.680  28.559   5.408 -0.1232  0.1388 -0.1256
    1DIPC   D3B18683  15.238  28.772   5.243  0.3407 -0.3175 -0.0569
    1DIPC   C4B18684  14.925  28.639   5.098 -0.0745  0.2677 -0.0150
    1DIPC   NC318685   9.166   1.423   2.956 -0.0957 -0.1410  0.2329
    1DIPC   PO418686   8.825   1.599   3.163  0.2256 -0.3285  0.1152
    1DIPC   GL118687   8.785   1.838   3.552 -0.1741  0.2441 -0.6175
    1DIPC   GL218688   8.563   1.776   3.711 -0.0896  0.3230  0.2285
    1DIPC   C1A18689   8.702   2.224   3.729 -0.0264 -0.0051 -0.3159
    1DIPC   D2A18690   8.405   2.368   4.086  0.1164 -0.1142 -0.2845
    1DIPC   D3A18691   8.761   2.376   4.304  0.2290 -0.2390 -0.1677
    1DIPC   C4A18692   8.762   2.485   4.745 -0.0198  0.1499  0.0529
    1DIPC   C1B18693   8.292   2.030   3.572  0.2256 -0.4185 -0.0524
    1DIPC   D2B18694   7.984   2.155   3.347  0.0687 -0.1112 -0.1919
    1DIPC   D3B18695   7.739   1.938   3.667 -0.2154 -0.2164  0.0030
    1DIPC   C4B18696   7.944   1.930   3.931 -0.0037  0.1566 -0.1618
    1DIPC   NC318697  22.016  20.268   3.471  0.1171  0.0662  0.3529
    1DIPC   PO418698  22.379  20.242   3.706  0.2674 -0.2278  0.0223
    1DIPC   GL118699  22.526  20.606   3.973  0.1539 -0.0410  0.1877
    1DIPC   GL218700  22.547  20.996   3.923 -0.0721 -0.2128  0.0610
    1DIPC   C1A18701  22.684  20.560   4.393 -0.0127  0.4523  0.1487
    1DIPC   D2A18702  22.799  20.343   4.803 -0.0040 -0.1495  0.0079
    1DIPC   D3A18703  22.857  20.040   4.502  0.0452 -0.0888  0.1251
    1DIPC   C4A18704  23.183  19.745   4.515  0.3816  0.1672  0.0139
    1DIPC   C1B18705  22.177  20.859   4.178 -0.1283  0.0305  0.0304
    1DIPC   D2B18706  22.035  20.512   4.320 -0.2685 -0.1021  0.1807
    1DIPC   D3B18707  21.899  20.435   4.785 -0.0660  0.1807  0.1767
    1DIPC   C4B18708  21.668  20.033   4.922  0.0818  0.2084 -0.0183
    1DIPC   NC318709  12.819  23.579   3.258 -0.0963  0.1655  0.0633
    1DIPC   PO418710  13.097  23.787   3.562  0.4506  0.0017 -0.0869
    1DIPC   GL118711  13.049  23.566   3.835  0.0165  0.0025  0.1354
    1DIPC   GL218712  12.906  23.641   4.154 -0.1479 -0.0072  0.0604
    1DIPC   C1A18713  13.090  23.174   4.011  0.1497  0.0595 -0.1068
    1DIPC   D2A18714  13.026  22.710   3.911 -0.1330  0.1935  0.1756
    1DIPC   D3A18715  13.098  22.304   4.181  0.0536  0.0916 -0.1378
    1DIPC   C4A18716  12.654  22.163   4.412  0.0689 -0.0413  0.1135
    1DIPC   C1B18717  13.145  23.802   4.565  0.2037 -0.0622 -0.0706
    1DIPC   D2B18718  13.293  24.082   4.871 -0.0201  0.1791 -0.0276
    1DIPC   D3B18719  13.431  23.908   5.315 -0.0727 -0.1790 -0.0776
    1DIPC   C4B18720  13.396  24.182   5.612  0.1691 -0.2303 -0.3155
    1DIPC   NC318721  22.965   9.913   2.376 -0.3450 -0.0775 -0.0727
    1DIPC   PO418722  23.164  10.230   2.643  0.0909  0.1658  0.2530
    1DIPC   GL118723  23.269  10.168   3.087  0.0113  0.1293 -0.1466
    1DIPC   GL218724  23.282   9.851   3.133 -0.1663 -0.0022  0.1480
    1DIPC   C1A18725  23.184  10.227   3.491  0.1038 -0.0618 -0.1045
    1DIPC   D2A18726  22.835  10.266   3.793 -0.2052 -0.1546  0.1583
    1DIPC   D3A18727  23.042  10.177   4.162 -0.2128  0.1231  0.1388
    1DIPC   C4A18728  23.135  10.487   4.503  0.3087  0.2506 -0.2758
    1DIPC   C1B18729  23.571   9.854   3.389 -0.0291  0.0424 -0.1546
    1DIPC   D2B18730  23.922   9.975   3.396  0.1259 -0.1362  0.1346
    1DIPC   D3B18731  23.862  10.246   3.697  0.1365  0.0712 -0.0649
    1DIPC   C4B18732  24.002  10.731   3.636  0.1524  0.0061  0.0527
    1DIPC   NC318733  26.312  22.013   2.855  0.1175  0.1079  0.2106
    1DIPC   PO418734  26.398  21.592   3.030 -0.0364 -0.2314  0.0762
    1DIPC   GL118735  26.527  21.591   3.418 -0.1188 -0.0495  0.2515
    1DIPC   GL218736  26.441  21.424   3.541  0.1110 -0.1100 -0.0656
    1DIPC   C1A18737  26.885  21.696   3.762  0.1761 -0.0537  0.1950
    1DIPC   D2A18738  27.255  21.490   3.816 -0.2067 -0.2276  0.1508
    1DIPC   D3A18739  27.234  21.196   4.111 -0.0557  0.1503  0.3453
    1DIPC   C4A18740  27.035  20.888   3.879  0.1154 -0.2254  0.0237
    1DIPC   C1B18741  26.320  21.762   3.860 -0.3442 -0.1312 -0.0036
    1DIPC   D2B18742  26.360  22.125   4.136  0.0163 -0.0006 -0.1398
    1DIPC   D3B18743  26.606  22.141   3.760  0.2891 -0.0475 -0.1187
    1DIPC   C4B18744  26.341  22.477   3.723 -0.0541 -0.1515 -0.0832
    1DIPC   NC318745  22.884   6.785   3.232 -0.2239 -0.0408  0.0825
    1DIPC   PO418746  22.898   6.335   3.190 -0.1191  0.0640 -0.1276
    1DIPC   GL118747  23.216   6.480   3.451  0.1603  0.0566  0.0582
    1DIPC   GL218748  23.260   6.721   3.553 -0.2101 -0.3085 -0.0279
    1DIPC   C1A18749  23.240   6.342   3.926  0.3230  0.1098  0.1841
    1DIPC   D2A18750  23.646   6.188   4.120  0.1298 -0.1273 -0.0085
    1DIPC   D3A18751  23.518   6.445   4.433 -0.0226  0.0785 -0.1615
    1DIPC   C4A18752  23.129   6.752   4.315 -0.2263  0.0845 -0.0025
    1DIPC   C1B18753  23.645   6.715   3.870 -0.0935 -0.2186  0.0019
    1DIPC   D2B18754  24.071   6.643   3.811 -0.0804 -0.3692 -0.0269
    1DIPC   D3B18755  23.920   6.874   3.444  0.0082  0.0396  0.1921
    1DIPC   C4B18756  23.602   7.170   3.488  0.4096  0.0624  0.1562
    1DIPC   NC318757  22.182  23.963   3.046  0.0416  0.1774  0.3568
    1DIPC   PO418758  22.522  23.635   3.196 -0.0589  0.1634 -0.1660
    1DIPC   GL118759  22.612  23.553   3.504 -0.0231 -0.0176  0.1496
    1DIPC   GL218760  22.671  23.828   3.764  0.0743  0.2479  0.2269
    1DIPC   C1A18761  22.545  23.406   3.969 -0.0260  0.0022 -0.1902
    1DIPC   D2A18762  22.655  23.324   4.403 -0.2073  0.4706 -0.0424
    1DIPC   D3A18763  22.960  23.085   4.651 -0.2635 -0.0757 -0.0343
    1DIPC   C4A18764  22.801  22.868   5.053 -0.3820 -0.0441  0.1736
    1DIPC   C1B18765  22.486  24.187   4.057 -0.1517  0.1387  0.1338
    1DIPC   D2B18766  22.393  24.416   4.429  0.0096 -0.0986 -0.1877
    1DIPC   D3B18767  22.221  24.123   4.703 -0.0540  0.1425  0.1929
    1DIPC   C4B18768  22.030  24.272   5.068 -0.1479  0.0363  0.0736
    1DIPC   NC318769  26.052   8.799   2.221  0.0561  0.2365  0.1820
    1DIPC   PO418770  25.718   8.838   2.443 -0.0834  0.2944 -0.0315
    1DIPC   GL118771  25.752   9.083   2.865 -0.0262 -0.2412 -0.0196
    1DIPC   GL218772  25.964   9.041   3.066 -0.1352 -0.0661  0.1227
    1DIPC   C1A18773  25.538   8.826   3.184 -0.1119 -0.2162 -0.1479
    1DIPC   D2A18774  25.531   8.733   3.611 -0.1311 -0.0037  0.0487
    1DIPC   D3A18775  25.761   8.762   4.088  0.2328  0.1500  0.3925
    1DIPC   C4A18776  25.790   8.460   4.384 -0.3516  0.0041  0.0316
    1DIPC   C1B18777  26.242   8.718   3.324 -0.1236  0.0069  0.0971
    1DIPC   D2B18778  26.001   8.510   3.573 -0.2290  0.1890 -0.4433
    1DIPC   D3B18779  26.274   8.698   3.886 -0.3297  0.1719  0.0003
    1DIPC   C4B18780  26.375   9.105   3.820  0.1519 -0.0535 -0.3454
    1DIPC   NC318781   8.556  27.498   2.970 -0.1884 -0.0020 -0.1849
    1DIPC   PO418782   8.462  27.414   3.347  0.1665  0.0445  0.3430
    1DIPC   GL118783   8.256  27.316   3.817  0.0948  0.3014 -0.3131
    1DIPC   GL218784   8.508  27.497   4.040 -0.0530 -0.2716  0.4480
    1DIPC   C1A18785   8.092  27.344   4.229 -0.1825 -0.2705  0.0564
    1DIPC   D2A18786   7.983  27.444   4.622  0.0644  0.1909  0.0542
    1DIPC   D3A18787   7.710  27.560   4.994  0.1517 -0.1385  0.0411
    1DIPC   C4A18788   7.907  27.532   5.345 -0.0960  0.0420 -0.1762
    1DIPC   C1B18789   8.573  27.071   4.133  0.1220 -0.0414  0.1729
    1DIPC   D2B18790   8.657  26.702   3.926  0.1846  0.1850  0.1827
    1DIPC   D3B18791   8.437  26.588   4.339 -0.1354 -0.0193 -0.0383
    1DIPC   C4B18792   8.428  26.921   4.637  0.0437  0.0657  0.1951
    1DIPC   NC318793   9.962  26.679   3.591  0.2103 -0.0273  0.1046
    1DIPC   PO418794   9.950  26.387   3.168  0.3152 -0.3331 -0.0444
    1DIPC   GL118795  10.082  26.118   3.471 -0.2553 -0.1046  0.0370
    1DIPC   GL218796  10.226  26.243   3.797  0.2229 -0.2188  0.1597
    1DIPC   C1A18797  10.235  25.746   3.634  0.0294  0.1885 -0.0969
    1DIPC   D2A18798  10.124  25.612   4.020 -0.3546  0.0135 -0.3326
    1DIPC   D3A18799  10.464  25.764   4.316  0.1126  0.1467  0.0090
    1DIPC   C4A18800  10.651  25.422   4.402 -0.3325 -0.1479 -0.1456
    1DIPC   C1B18801   9.788  26.024   3.938 -0.5666 -0.0593 -0.0898
    1DIPC   D2B18802   9.549  25.737   4.055 -0.1631 -0.0171 -0.0816
    1DIPC   D3B18803   9.471  25.776   3.664  0.3220  0.0894 -0.0143
    1DIPC   C4B18804   9.213  25.447   3.712 -0.1296  0.1256  0.0140
    1DIPC   NC318805  24.400   9.296   2.462 -0.0860  0.0521  0.0102
    1DIPC   PO418806  24.383   9.748   2.463  0.0656 -0.1157 -0.0863
    1DIPC   GL118807  24.646   9.718   2.694  0.0096 -0.3140  0.1526
    1DIPC   GL218808  24.579   9.906   3.022  0.1796  0.3393  0.2322
    1DIPC   C1A18809  24.909   9.574   3.134  0.2757 -0.2004 -0.1036
    1DIPC   D2A18810  25.179   9.173   3.247 -0.2118 -0.0698 -0.0370
    1DIPC   D3A18811  25.163   9.543   3.579  0.0859 -0.2566 -0.0392
    1DIPC   C4A18812  24.703   9.534   3.654  0.0256 -0.3192 -0.2611
    1DIPC   C1B18813  24.794   9.976   3.413  0.0879  0.0406  0.0102
    1DIPC   D2B18814  25.065   9.975   3.800 -0.0404  0.0547 -0.0942
    1DIPC   D3B18815  24.823  10.233   3.938 -0.1589 -0.1906  0.0794
    1DIPC   C4B18816  24.762  10.383   4.390  0.0010  0.0454  0.2034
    1DIPC   NC318817   8.898  20.473   1.801  0.0518 -0.0671 -0.1270
    1DIPC   PO418818   8.883  20.563   2.288  0.1496 -0.1847  0.0979
    1DIPC   GL118819   8.772  20.797   2.657  0.0537  0.0165 -0.2268
    1DIPC   GL218820   8.402  20.808   2.874 -0.0581 -0.0411 -0.4081
    1DIPC   C1A18821   8.961  20.644   3.019  0.0073  0.1503 -0.0272
    1DIPC   D2A18822   9.149  20.532   3.327 -0.0172 -0.0963 -0.1405
    1DIPC   D3A18823   9.091  20.874   3.572 -0.0180  0.0688 -0.3576
    1DIPC   C4A18824   8.954  20.893   3.992 -0.0931  0.1494 -0.0611
    1DIPC   C1B18825   8.453  20.932   3.294 -0.2011 -0.0937  0.1078
    1DIPC   D2B18826   8.592  21.024   3.665 -0.1023  0.0754  0.0955
    1DIPC   D3B18827   9.046  21.335   3.696  0.1101  0.1926  0.1052
    1DIPC   C4B18828   8.802  21.768   3.800 -0.2206  0.1462  0.0886
    1DIPC   NC318829   5.729  18.717   2.593 -0.0938 -0.4346 -0.4238
    1DIPC   PO418830   5.378  18.662   2.729  0.1541  0.4014  0.1777
    1DIPC   GL118831   5.265  18.489   3.056  0.1337  0.0060  0.4895
    1DIPC   GL218832   5.042  18.559   3.243 -0.0427  0.2252 -0.3015
    1DIPC   C1A18833   5.402  18.351   3.451 -0.1680 -0.2626  0.1316
    1DIPC   D2A18834   5.493  18.262   3.838  0.0553 -0.2978  0.3768
    1DIPC   D3A18835   5.808  18.419   4.139  0.0439  0.2759  0.0801
    1DIPC   C4A18836   6.146  18.630   4.161  0.2889 -0.1701  0.1254
    1DIPC   C1B18837   4.752  18.666   3.657  0.2379  0.1940  0.1382
    1DIPC   D2B18838   4.629  18.850   4.033  0.0586 -0.1741 -0.0523
    1DIPC   D3B18839   4.206  18.696   3.779 -0.0104 -0.2031 -0.0362
    1DIPC   C4B18840   4.072  18.416   3.485  0.1095 -0.0274 -0.0652
    1DIPC   NC318841  24.948   1.546   2.856  0.0102  0.1170  0.6021
    1DIPC   PO418842  24.484   1.720   2.847 -0.0822 -0.0329  0.1263
    1DIPC   GL118843  24.499   1.632   3.262 -0.1461 -0.3473  0.3248
    1DIPC   GL218844  24.312   1.990   3.319  0.0195 -0.0367  0.1605
    1DIPC   C1A18845  24.425   1.628   3.703 -0.2096  0.2486 -0.2475
    1DIPC   D2A18846  24.343   1.751   4.182 -0.0185 -0.3737 -0.0192
    1DIPC   D3A18847  24.264   1.462   4.658 -0.0309  0.1839  0.2143
    1DIPC   C4A18848  24.506   1.294   4.895  0.2636  0.0002  0.0348
    1DIPC   C1B18849  24.176   2.134   3.621 -0.2397  0.0009 -0.2034
    1DIPC   D2B18850  23.931   1.975   3.908 -0.2106  0.1989 -0.3422
    1DIPC   D3B18851  24.242   2.277   4.135  0.0234 -0.0139 -0.1079
    1DIPC   C4B18852  24.231   2.644   4.292 -0.1053  0.2436  0.1246
    1DIPC   NC318853  28.341  13.140   2.261 -0.0995  0.1620 -0.1785
    1DIPC   PO418854  27.995  13.370   2.208  0.2238  0.0939 -0.1665
    1DIPC   GL118855  28.016  13.623   2.507  0.0273  0.2834 -0.1550
    1DIPC   GL218856  28.260  13.476   2.679  0.3285 -0.2187 -0.1254
    1DIPC   C1A18857  27.967  13.871   2.915 -0.0129 -0.1081 -0.0817
    1DIPC   D2A18858  27.994  13.839   3.266 -0.2121 -0.3492  0.1230
    1DIPC   D3A18859  28.023  13.479   3.226 -0.1944 -0.0086  0.2424
    1DIPC   C4A18860  27.734  13.235   3.365 -0.0922 -0.1346  0.2715
    1DIPC   C1B18861  28.451  13.722   3.019  0.2073 -0.1268  0.0934
    1DIPC   D2B18862  28.782  13.562   3.294  0.1274 -0.2170  0.3629
    1DIPC   D3B18863  28.415  13.676   3.469 -0.3810 -0.1939  0.3287
    1DIPC   C4B18864  28.409  13.570   3.900 -0.0182  0.1188 -0.1449
    1DIPC   NC318865   7.331  12.721   2.912  0.4363 -0.1545  0.0710
    1DIPC   PO418866   6.991  12.911   3.063  0.1468 -0.1175 -0.0647
    1DIPC   GL118867   7.182  13.123   3.304  0.1166  0.0659 -0.1675
    1DIPC   GL218868   7.469  12.961   3.321 -0.0100  0.2027  0.1391
    1DIPC   C1A18869   6.989  13.315   3.705  0.2579  0.2003 -0.0396
    1DIPC   D2A18870   7.061  13.514   4.122  0.4158 -0.0099  0.0009
    1DIPC   D3A18871   6.580  13.318   4.254  0.2768 -0.1022  0.0727
    1DIPC   C4A18872   6.611  13.019   4.045  0.0843  0.1403  0.0523
    1DIPC   C1B18873   7.575  12.976   3.698  0.1362 -0.1170 -0.1740
    1DIPC   D2B18874   7.569  13.004   4.127  0.0496 -0.1112  0.4594
    1DIPC   D3B18875   7.502  12.728   4.347  0.2039 -0.0693 -0.2043
    1DIPC   C4B18876   7.365  12.759   4.738  0.1115 -0.1725  0.0516
    1DIPC   NC318877  29.298  24.370   2.812  0.0695 -0.0642  0.2024
    1DIPC   PO418878  28.946  24.365   2.948  0.3130  0.2563 -0.2712
    1DIPC   GL118879  29.095  24.178   3.318 -0.2008 -0.2473 -0.1466
    1DIPC   GL218880  29.424  24.303   3.356  0.0543 -0.1519  0.2361
    1DIPC   C1A18881  29.039  23.943   3.696  0.0785 -0.0492  0.2221
    1DIPC   D2A18882  29.019  23.697   4.002 -0.2352 -0.1964 -0.2640
    1DIPC   D3A18883  28.965  24.184   4.099 -0.1336  0.0433 -0.0094
    1DIPC   C4A18884  28.539  24.309   4.233 -0.2958  0.1853 -0.0937
    1DIPC   C1B18885  29.531  24.091   3.685 -0.1959  0.0675  0.1492
    1DIPC   D2B18886  29.500  23.961   4.089  0.2109  0.0679 -0.2783
    1DIPC   D3B18887  29.504  24.476   4.158  0.1819 -0.1289  0.0258
    1DIPC   C4B18888  29.264  24.420   4.496  0.1185  0.0462 -0.0362
    1DIPC   NC318889   7.233   0.766   3.147  0.1867  0.1080  0.1384
    1DIPC   PO418890   7.002   0.340   3.129 -0.2203 -0.3614  0.1064
    1DIPC   GL118891   6.999   0.435   3.546 -0.2124 -0.1879 -0.2120
    1DIPC   GL218892   6.967   0.764   3.633 -0.1486 -0.0024 -0.1094
    1DIPC   C1A18893   7.203   0.309   3.993  0.0262 -0.0541  0.1717
    1DIPC   D2A18894   7.217   0.356   4.399 -0.0511  0.1222 -0.4527
    1DIPC   D3A18895   7.429   0.739   4.628 -0.2333  0.2546 -0.2321
    1DIPC   C4A18896   7.910   0.795   4.766 -0.1399 -0.0254 -0.0504
    1DIPC   C1B18897   6.940   0.722   4.066 -0.4461  0.1628  0.2713
    1DIPC   D2B18898   6.941   0.745   4.587 -0.0964 -0.1728 -0.0108
    1DIPC   D3B18899   6.850   0.999   4.903 -0.0856 -0.0995 -0.0988
    1DIPC   C4B18900   6.991   1.334   5.196 -0.1745  0.0234 -0.0501
    1DIPC   NC318901  19.157   6.867   3.183  0.0443 -0.0626  0.2413
    1DIPC   PO418902  19.385   6.523   3.423  0.0544  0.0806 -0.0397
    1DIPC   GL118903  19.625   6.688   3.813  0.0392  0.2719  0.0521
    1DIPC   GL218904  19.802   7.019   3.869  0.2272 -0.0377 -0.1925
    1DIPC   C1A18905  19.981   6.595   4.081  0.0039 -0.2708  0.0420
    1DIPC   D2A18906  20.248   6.420   4.470 -0.0855 -0.0363 -0.2301
    1DIPC   D3A18907  20.201   6.506   4.897  0.0249  0.0081  0.1598
    1DIPC   C4A18908  20.312   6.459   5.310 -0.2620  0.1213  0.0563
    1DIPC   C1B18909  19.904   7.041   4.314 -0.0535  0.1071 -0.0780
    1DIPC   D2B18910  20.084   6.966   4.759 -0.1306 -0.1682  0.1651
    1DIPC   D3B18911  20.309   7.277   4.839  0.1330  0.1240  0.1694
    1DIPC   C4B18912  20.456   7.487   5.186 -0.3322  0.0211  0.4066
    1DIPC   NC318913   7.843  26.440   2.677 -0.0988 -0.1396 -0.1018
    1DIPC   PO418914   7.659  26.601   3.047 -0.0609  0.0992 -0.0719
    1DIPC   GL118915   7.751  26.271   3.294 -0.1776 -0.1345  0.0554
    1DIPC   GL218916   7.511  26.115   3.306 -0.3805  0.0824  0.2040
    1DIPC   C1A18917   8.033  25.967   3.491 -0.0605 -0.0748  0.0415
    1DIPC   D2A18918   8.356  26.028   3.876 -0.2192  0.1023 -0.2866
    1DIPC   D3A18919   8.750  26.201   3.998 -0.2077 -0.1716 -0.1644
    1DIPC   C4A18920   8.791  26.100   4.454 -0.2291 -0.4770  0.0719
    1DIPC   C1B18921   7.640  26.225   3.786 -0.0117  0.4348 -0.1760
    1DIPC   D2B18922   7.536  26.028   4.191  0.1360  0.1611  0.1359
    1DIPC   D3B18923   7.909  25.864   4.103 -0.0012 -0.0521 -0.0491
    1DIPC   C4B18924   8.094  25.447   4.335  0.1562  0.0811 -0.0928
    1DIPC   NC318925   0.965   8.556   2.425 -0.0969 -0.1024 -0.0323
    1DIPC   PO418926   1.388   8.656   2.363 -0.1370 -0.0714 -0.2013
    1DIPC   GL118927   1.384   8.613   2.797 -0.0083 -0.0094 -0.0572
    1DIPC   GL218928   1.725   8.668   2.964 -0.1135 -0.2100  0.1289
    1DIPC   C1A18929   1.184   8.523   3.172  0.1754  0.1249 -0.0849
    1DIPC   D2A18930   1.042   8.251   3.515  0.1997 -0.1233  0.4581
    1DIPC   D3A18931   0.907   7.834   3.737 -0.2397  0.1085  0.1626
    1DIPC   C4A18932   0.849   7.891   4.151  0.2967  0.1816 -0.1719
    1DIPC   C1B18933   1.685   8.801   3.442 -0.1132  0.0471 -0.0458
    1DIPC   D2B18934   1.928   8.812   3.809  0.0525 -0.0440  0.2282
    1DIPC   D3B18935   2.317   8.880   3.988 -0.0238 -0.3156 -0.2902
    1DIPC   C4B18936   2.392   9.041   4.439  0.0808 -0.5085 -0.0088
    1DIPC   NC318937   8.540  23.396   2.262 -0.0470 -0.1132  0.0866
    1DIPC   PO418938   8.036  23.440   2.279 -0.1786  0.1663 -0.0525
    1DIPC   GL118939   8.193  23.550   2.756 -0.1705 -0.0452  0.2736
    1DIPC   GL218940   8.328  23.268   2.961  0.2001 -0.0532 -0.2318
    1DIPC   C1A18941   8.290  23.717   3.172  0.1380  0.1520 -0.1228
    1DIPC   D2A18942   8.162  23.976   3.466  0.0827 -0.1362 -0.0401
    1DIPC   D3A18943   7.969  24.321   3.704  0.1990 -0.2324 -0.1093
    1DIPC   C4A18944   8.066  24.691   3.420  0.2270  0.2461 -0.1293
    1DIPC   C1B18945   8.818  23.304   3.106 -0.0516 -0.0485 -0.2528
    1DIPC   D2B18946   9.012  23.212   3.515 -0.4315 -0.0286  0.1862
    1DIPC   D3B18947   8.894  23.279   3.957 -0.1001  0.0067  0.0589
    1DIPC   C4B18948   8.865  23.703   4.098  0.0420  0.1855 -0.2420
    1DIPC   NC318949   5.183  14.458   2.402  0.4732  0.1326  0.1313
    1DIPC   PO418950   5.540  14.556   2.732 -0.0813  0.0650  0.0388
    1DIPC   GL118951   5.504  14.423   3.144  0.1773  0.0895  0.2168
    1DIPC   GL218952   5.445  14.040   3.220 -0.0986 -0.2974  0.2941
    1DIPC   C1A18953   5.270  14.407   3.592  0.3398  0.4172  0.3392
    1DIPC   D2A18954   5.013  14.093   3.784 -0.1781 -0.0698  0.1024
    1DIPC   D3A18955   4.963  14.043   4.081 -0.0657  0.1899 -0.1171
    1DIPC   C4A18956   5.325  13.881   4.496 -0.1894 -0.1539  0.0806
    1DIPC   C1B18957   5.566  13.946   3.565  0.2120  0.0454 -0.0015
    1DIPC   D2B18958   5.530  13.907   4.018  0.0020  0.1646 -0.0403
    1DIPC   D3B18959   5.624  13.438   3.917 -0.1864  0.1317 -0.3262
    1DIPC   C4B18960   5.644  13.218   4.246 -0.0381  0.1796  0.1307
    1DIPC   NC318961  18.105  28.814   3.455 -0.1442  0.1257 -0.1266
    1DIPC   PO418962  18.461  29.108   3.550 -0.2310  0.0741 -0.0303
    1DIPC   GL118963  18.485  29.335   3.913  0.3212 -0.1380 -0.0350
    1DIPC   GL218964  18.247  29.235   4.110 -0.0707  0.1010  0.1007
    1DIPC   C1A18965  18.677  29.683   4.232 -0.0167  0.6723  0.2288
    1DIPC   D2A18966  18.909  29.852   4.574 -0.1360 -0.1255  0.1912
    1DIPC   D3A18967  19.200  29.578   4.692 -0.0387  0.2324 -0.1266
    1DIPC   C4A18968  19.592  29.331   4.448  0.0172 -0.0156  0.4373
    1DIPC   C1B18969  18.353  29.326   4.491 -0.0001  0.1791  0.2480
    1DIPC   D2B18970  18.659  29.479   4.849  0.1954  0.0909 -0.3035
    1DIPC   D3B18971  18.361  29.479   5.144  0.0310  0.0970 -0.2058
    1DIPC   C4B18972  18.004  29.753   5.220 -0.2157 -0.1567  0.4451
    1DIPC   NC318973  13.542  23.480   3.638  0.1865 -0.1315  0.2132
    1DIPC   PO418974  13.810  23.143   3.650 -0.1391  0.0602 -0.0938
    1DIPC   GL118975  13.772  23.290   4.040 -0.2284  0.4145 -0.3018
    1DIPC   GL218976  14.001  23.478   4.159 -0.2672 -0.3697 -0.1859
    1DIPC   C1A18977  13.733  23.183   4.448  0.0835  0.0989  0.1903
    1DIPC   D2A18978  13.498  23.020   4.855 -0.0011  0.0949  0.1735
    1DIPC   D3A18979  13.185  23.234   5.033 -0.2001 -0.0966  0.1907
    1DIPC   C4A18980  12.910  23.528   4.870  0.0379  0.1667  0.0796
    1DIPC   C1B18981  14.309  23.196   4.321 -0.0528 -0.1660  0.0467
    1DIPC   D2B18982  14.592  22.911   4.123  0.1166  0.2025  0.1549
    1DIPC   D3B18983  14.906  22.961   3.704  0.0664  0.1137  0.2649
    1DIPC   C4B18984  15.045  23.351   3.602  0.0870  0.0111 -0.0783
    1DIPC   NC318985   8.239  15.039   2.123 -0.3284  0.2356 -0.0842
    1DIPC   PO418986   8.019  14.684   2.287  0.0953 -0.2480  0.2500
    1DIPC   GL118987   8.062  14.532   2.653  0.0322 -0.0333 -0.0071
    1DIPC   GL218988   7.839  14.631   2.917  0.1110  0.1281 -0.2768
    1DIPC   C1A18989   8.258  14.922   3.002  0.2007  0.4181  0.1285
    1DIPC   D2A18990   8.159  15.047   3.469  0.0813 -0.1214 -0.0126
    1DIPC   D3A18991   7.864  14.962   3.768 -0.2307 -0.2891  0.1090
    1DIPC   C4A18992   7.710  15.050   4.159  0.0932 -0.0724 -0.0988
    1DIPC   C1B18993   7.686  14.918   3.220 -0.1282 -0.0577  0.2326
    1DIPC   D2B18994   7.422  14.809   3.500  0.1430 -0.2703 -0.1580
    1DIPC   D3B18995   7.296  14.916   3.966 -0.1747 -0.1966 -0.2049
    1DIPC   C4B18996   7.375  14.571   4.189  0.0994 -0.0087  0.0580
    1DIPC   NC318997   2.521  22.292   2.864 -0.2289  0.0928 -0.3082
    1DIPC   PO418998   2.267  21.997   3.226 -0.1364 -0.0282 -0.3456
    1DIPC   GL118999   2.263  21.626   3.357  0.0860  0.2037 -0.1444
    1DIPC   GL219000   1.899  21.690   3.457  0.0366  0.0049  0.2924
    1DIPC   C1A19001   2.333  21.194   3.565 -0.0843  0.3640  0.0290
    1DIPC   D2A19002   2.135  20.960   3.697  0.0022 -0.0886 -0.2079
    1DIPC   D3A19003   1.805  21.304   3.797  0.1315  0.2562  0.0360
    1DIPC   C4A19004   1.382  21.311   3.833 -0.2627  0.0913  0.1860
    1DIPC   C1B19005   2.157  21.619   3.830 -0.0932  0.2558  0.2110
    1DIPC   D2B19006   2.346  21.310   4.156  0.1191  0.1214 -0.0826
    1DIPC   D3B19007   1.962  21.273   4.298  0.1570  0.4436 -0.0729
    1DIPC   C4B19008   1.608  21.130   4.303 -0.0829  0.2141  0.1183
    1DIPC   NC319009   6.832  17.749   2.302 -0.1421 -0.2055  0.0882
    1DIPC   PO419010   6.361  17.734   2.429 -0.1256  0.2680  0.1787
    1DIPC   GL119011   6.193  17.569   2.826 -0.0302 -0.1092 -0.1620
    1DIPC   GL219012   6.373  17.281   2.936  0.0768  0.1187 -0.0620
    1DIPC   C1A19013   6.196  17.952   3.140 -0.1354 -0.1403  0.2189
    1DIPC   D2A19014   6.412  18.297   3.173 -0.0070 -0.1075  0.0989
    1DIPC   D3A19015   6.737  18.374   3.306 -0.2840 -0.0621 -0.0061
    1DIPC   C4A19016   6.849  18.303   3.729  0.0808  0.1676  0.0118
    1DIPC   C1B19017   6.518  17.310   3.334 -0.2434 -0.0192  0.1093
    1DIPC   D2B19018   6.270  17.167   3.592 -0.1170 -0.0528 -0.1203
    1DIPC   D3B19019   6.459  17.353   3.844 -0.0738 -0.1437 -0.1148
    1DIPC   C4B19020   6.842  17.093   3.868 -0.0902  0.2178  0.0471
    1DIPC   NC319021   7.228   6.697   3.548  0.1309 -0.0034  0.0159
    1DIPC   PO419022   7.322   7.025   3.285  0.1012 -0.0181  0.2785
    1DIPC   GL119023   7.198   7.212   3.651  0.2163 -0.0591  0.1818
    1DIPC   GL219024   7.437   7.160   3.826 -0.0196 -0.3483 -0.2395
    1DIPC   C1A19025   6.881   7.286   3.902  0.0186  0.0993  0.2390
    1DIPC   D2A19026   6.802   7.174   4.201  0.0957  0.1432 -0.5304
    1DIPC   D3A19027   6.752   6.768   4.398 -0.1317 -0.1632 -0.1553
    1DIPC   C4A19028   6.890   6.642   4.798  0.1600 -0.3121  0.1431
    1DIPC   C1B19029   7.374   7.279   4.154 -0.4706  0.1206 -0.1992
    1DIPC   D2B19030   7.084   7.469   4.549 -0.0516  0.2386  0.2055
    1DIPC   D3B19031   7.189   7.241   4.920 -0.0855 -0.1413 -0.3509
    1DIPC   C4B19032   7.396   6.879   5.030 -0.2325 -0.2013  0.2452
    1DIPC   NC319033   2.797  23.468   2.658 -0.0609 -0.2473 -0.0048
    1DIPC   PO419034   3.221  23.693   2.542 -0.0860 -0.1545 -0.1136
    1DIPC   GL119035   3.300  23.367   2.892  0.3176  0.2359 -0.0335
    1DIPC   GL219036   3.050  23.468   3.136 -0.0931  0.0241 -0.0918
    1DIPC   C1A19037   3.606  23.460   3.208  0.2256 -0.0623 -0.0671
    1DIPC   D2A19038   3.757  23.264   3.586  0.1160  0.0907 -0.2498
    1DIPC   D3A19039   3.622  23.244   3.850  0.0819 -0.1401 -0.0043
    1DIPC   C4A19040   3.914  23.423   4.161  0.1044 -0.0574  0.0839
    1DIPC   C1B19041   2.938  22.982   3.041  0.4670  0.2938  0.1647
    1DIPC   D2B19042   2.924  22.577   2.827  0.2500 -0.0963  0.0314
    1DIPC   D3B19043   3.012  22.354   3.204  0.1540  0.0524  0.1583
    1DIPC   C4B19044   3.132  22.366   3.672 -0.0955 -0.1071 -0.2154
    1DIPC   NC319045  24.147   2.913   2.197 -0.0946 -0.0994  0.0169
    1DIPC   PO419046  24.236   2.976   2.657 -0.2421  0.2238  0.0148
    1DIPC   GL119047  24.052   3.078   3.142 -0.0934 -0.6031  0.1396
    1DIPC   GL219048  24.076   3.466   3.181  0.0535  0.2846 -0.0670
    1DIPC   C1A19049  24.008   3.246   3.611  0.1788 -0.0144  0.1555
    1DIPC   D2A19050  24.099   3.071   4.038  0.4281 -0.0736  0.4133
    1DIPC   D3A19051  23.768   3.271   4.263 -0.0329  0.0857  0.1347
    1DIPC   C4A19052  23.720   3.441   4.618  0.2407  0.1138 -0.1592
    1DIPC   C1B19053  24.427   3.391   3.382 -0.1436 -0.0433 -0.0249
    1DIPC   D2B19054  24.876   3.640   3.476 -0.0656  0.2606 -0.2748
    1DIPC   D3B19055  25.004   3.485   3.915  0.1142  0.1523 -0.0665
    1DIPC   C4B19056  24.721   3.446   4.302  0.1657  0.0755  0.0616
    1DIPC   NC319057  17.076  29.066   3.276 -0.2898 -0.0899  0.1717
    1DIPC   PO419058  16.958  29.440   3.457  0.1624 -0.1768 -0.0364
    1DIPC   GL119059  17.048  29.476   3.911  0.0269 -0.1355 -0.3263
    1DIPC   GL219060  17.256  29.363   4.122 -0.0387  0.1231  0.1312
    1DIPC   C1A19061  16.759  29.406   4.176 -0.2121 -0.3301  0.1701
    1DIPC   D2A19062  16.331  29.558   4.479 -0.1495  0.1372  0.0358
    1DIPC   D3A19063  16.736  29.724   4.665 -0.1036 -0.0241  0.1206
    1DIPC   C4A19064  17.081  29.543   4.598  0.1211  0.1225 -0.0419
    1DIPC   C1B19065  17.483  29.301   4.563  0.2912 -0.0987  0.2218
    1DIPC   D2B19066  17.839  29.191   4.993 -0.1448 -0.0361  0.0033
    1DIPC   D3B19067  18.224  28.843   4.916 -0.0745 -0.2832  0.0177
    1DIPC   C4B19068  18.460  28.869   4.642 -0.0181 -0.0058 -0.2895
    1DIPC   NC319069  27.881  18.484   2.597 -0.1047  0.1413 -0.0599
    1DIPC   PO419070  27.429  18.610   2.710 -0.2548 -0.0934  0.2053
    1DIPC   GL119071  27.553  18.683   3.093  0.1451 -0.0827 -0.3317
    1DIPC   GL219072  27.864  18.664   3.087  0.3582 -0.0861  0.1484
    1DIPC   C1A19073  27.596  18.594   3.457 -0.0512 -0.0582 -0.1523
    1DIPC   D2A19074  27.249  18.416   3.666 -0.0540 -0.0209 -0.1042
    1DIPC   D3A19075  27.633  18.305   3.974  0.1255  0.2366 -0.1486
    1DIPC   C4A19076  27.991  18.145   4.151 -0.3685 -0.2027  0.1099
    1DIPC   C1B19077  28.037  18.753   3.529  0.0274 -0.3836 -0.2330
    1DIPC   D2B19078  28.023  18.679   3.925 -0.0843  0.0902  0.1229
    1DIPC   D3B19079  27.642  18.819   4.105  0.1973  0.0820  0.0709
    1DIPC   C4B19080  27.629  19.234   4.388 -0.1786 -0.1245  0.1836
    1DIPC   NC319081  26.775  11.071   2.026 -0.1138 -0.0702 -0.1623
    1DIPC   PO419082  26.595  10.974   2.476  0.0361 -0.0219  0.1268
    1DIPC   GL119083  26.425  10.834   2.740  0.1368  0.0516  0.0782
    1DIPC   GL219084  26.561  10.493   2.609  0.3080 -0.0102  0.1748
    1DIPC   C1A19085  26.427  10.929   3.191  0.2797  0.3535  0.0664
    1DIPC   D2A19086  26.627  10.606   3.499  0.0929 -0.5028  0.1304
    1DIPC   D3A19087  26.909  10.923   3.843  0.0937  0.0492  0.3985
    1DIPC   C4A19088  27.385  11.158   3.654 -0.1208 -0.0439 -0.0217
    1DIPC   C1B19089  26.484  10.413   3.030 -0.0502  0.2114  0.1745
    1DIPC   D2B19090  26.681  10.136   3.250  0.1354 -0.1294 -0.2013
    1DIPC   D3B19091  26.553  10.111   3.716 -0.1784 -0.2616  0.1904
    1DIPC   C4B19092  26.206   9.940   3.888  0.1884  0.1562  0.1160
    1DIPC   NC319093  19.739   3.139   2.664 -0.0538 -0.0083  0.0889
    1DIPC   PO419094  19.592   3.117   3.137  0.1271 -0.1128  0.2491
    1DIPC   GL119095  19.340   2.902   3.588  0.1807 -0.2959  0.3700
    1DIPC   GL219096  19.162   2.627   3.689 -0.1428 -0.1669 -0.0963
    1DIPC   C1A19097  19.177   3.115   3.922  0.1376 -0.3236  0.0110
    1DIPC   D2A19098  19.439   3.392   4.113 -0.0735  0.2133  0.0914
    1DIPC   D3A19099  19.268   3.845   4.240  0.2941 -0.1910 -0.2242
    1DIPC   C4A19100  18.907   4.072   4.119 -0.0677 -0.3366 -0.0352
    1DIPC   C1B19101  19.549   2.810   4.017 -0.2698 -0.2252 -0.1119
    1DIPC   D2B19102  19.836   3.090   4.027  0.2535 -0.0158 -0.0705
    1DIPC   D3B19103  19.853   2.981   4.433 -0.0429  0.0495  0.1962
    1DIPC   C4B19104  19.655   3.010   4.835  0.2775  0.0160  0.3660
    1DIPC   NC319105   6.627  12.498   3.228  0.2151 -0.1293 -0.3095
    1DIPC   PO419106   6.208  12.817   3.212  0.0617  0.0549 -0.1946
    1DIPC   GL119107   6.252  12.915   3.697  0.0417  0.0331  0.1230
    1DIPC   GL219108   6.504  12.667   3.726 -0.2056  0.1858  0.1009
    1DIPC   C1A19109   6.128  13.132   4.104  0.1360 -0.1385  0.1329
    1DIPC   D2A19110   6.063  13.087   4.502 -0.0995 -0.1798 -0.1607
    1DIPC   D3A19111   6.017  12.677   4.756 -0.0043  0.0037  0.1340
    1DIPC   C4A19112   5.583  12.502   4.748  0.1807 -0.0311  0.2169
    1DIPC   C1B19113   6.317  12.666   4.208  0.0475  0.0541 -0.1365
    1DIPC   D2B19114   6.422  12.565   4.493 -0.1093 -0.0502 -0.0432
    1DIPC   D3B19115   6.515  12.921   4.656 -0.0476 -0.0633  0.0638
    1DIPC   C4B19116   6.793  13.244   4.768  0.1484  0.1155  0.0295
    1DIPC   NC319117  20.954   6.411   3.134  0.1581  0.0287 -0.1013
    1DIPC   PO419118  21.406   6.690   2.948 -0.0336 -0.3608 -0.0365
    1DIPC   GL119119  21.478   6.712   3.353 -0.1610  0.3229  0.0967
    1DIPC   GL219120  21.298   6.403   3.487  0.1788 -0.2876 -0.1381
    1DIPC   C1A19121  21.711   6.422   3.757  0.2126  0.1904  0.0111
    1DIPC   D2A19122  21.975   6.463   4.195  0.2006  0.3414  0.3434
    1DIPC   D3A19123  21.896   6.083   4.443  0.1870  0.0109  0.1210
    1DIPC   C4A19124  21.905   5.763   4.225  0.3581  0.1091  0.0027
    1DIPC   C1B19125  21.319   6.786   3.787 -0.0329  0.3439 -0.0889
    1DIPC   D2B19126  21.587   6.772   4.115 -0.2018 -0.1977 -0.1129
    1DIPC   D3B19127  21.577   6.490   4.507 -0.1124 -0.1689 -0.0657
    1DIPC   C4B19128  21.700   6.707   4.802  0.4031  0.0747 -0.1094
    1DIPC   NC319129  21.005   5.770   2.823 -0.3518 -0.0940 -0.0236
    1DIPC   PO419130  20.960   5.918   3.193  0.0721 -0.2357 -0.2760
    1DIPC   GL119131  21.180   5.767   3.487  0.0434  0.0674 -0.2204
    1DIPC   GL219132  21.428   5.974   3.544  0.0034  0.1927  0.1052
    1DIPC   C1A19133  21.040   5.768   3.934 -0.1397 -0.0756  0.4892
    1DIPC   D2A19134  20.727   5.594   4.165 -0.1746 -0.0027  0.0721
    1DIPC   D3A19135  20.615   6.005   4.323  0.2333 -0.0961  0.0980
    1DIPC   C4A19136  20.668   6.203   4.668 -0.2676 -0.0269 -0.0038
    1DIPC   C1B19137  21.542   5.784   3.789  0.1629 -0.0526 -0.1639
    1DIPC   D2B19138  21.444   5.568   4.163 -0.1846  0.1203 -0.0755
    1DIPC   D3B19139  21.195   5.318   4.430 -0.0135  0.3470  0.0454
    1DIPC   C4B19140  20.821   5.288   4.507  0.2491 -0.0077 -0.2775
    1DIPC   NC319141   4.875  16.666   1.802  0.4034 -0.1302  0.1937
    1DIPC   PO419142   4.923  16.509   2.286 -0.3370 -0.0153 -0.2641
    1DIPC   GL119143   4.676  16.575   2.594  0.0409 -0.0513 -0.0295
    1DIPC   GL219144   4.584  16.203   2.624 -0.0102 -0.0060 -0.3131
    1DIPC   C1A19145   4.489  16.660   3.062 -0.1060  0.1937 -0.1477
    1DIPC   D2A19146   4.207  16.836   3.256 -0.0098 -0.2595 -0.3672
    1DIPC   D3A19147   3.989  17.016   3.612 -0.4910  0.1943 -0.2760
    1DIPC   C4A19148   3.740  16.811   3.923  0.1487 -0.0465  0.1696
    1DIPC   C1B19149   4.209  16.236   2.967  0.2326 -0.1365  0.1570
    1DIPC   D2B19150   3.939  16.039   3.318  0.0065 -0.0111 -0.0659
    1DIPC   D3B19151   3.884  15.575   3.438 -0.1548 -0.1340 -0.1046
    1DIPC   C4B19152   3.937  15.520   3.878 -0.1016 -0.1079 -0.1015
    1DIPC   NC319153  21.750   8.196   3.545  0.0439 -0.3919  0.0239
    1DIPC   PO419154  22.049   7.842   3.382 -0.0614 -0.0301 -0.1739
    1DIPC   GL119155  22.378   7.705   3.592  0.0751  0.0013 -0.1150
    1DIPC   GL219156  22.679   7.854   3.437 -0.0788 -0.1099  0.1454
    1DIPC   C1A19157  22.309   7.460   3.915 -0.0168  0.0974 -0.0298
    1DIPC   D2A19158  22.262   7.271   4.338  0.2273  0.1177 -0.4269
    1DIPC   D3A19159  21.942   7.010   4.438 -0.1040  0.0927 -0.1778
    1DIPC   C4A19160  22.163   6.650   4.597 -0.1700 -0.1468 -0.2032
    1DIPC   C1B19161  22.644   7.813   3.955  0.0861 -0.0407  0.0414
    1DIPC   D2B19162  22.535   7.787   4.372 -0.1344  0.1462 -0.0696
    1DIPC   D3B19163  22.750   7.641   4.675 -0.0323 -0.0906  0.2223
    1DIPC   C4B19164  23.126   7.891   4.791 -0.1863 -0.0731 -0.2153
    1DIPC   NC319165   6.919  20.672   2.115  0.1501 -0.3912  0.2925
    1DIPC   PO419166   6.517  20.965   2.114 -0.2036  0.0750 -0.0947
    1DIPC   GL119167   6.640  20.797   2.537  0.2890 -0.0841  0.0121
    1DIPC   GL219168   6.473  21.001   2.751 -0.2771 -0.1204  0.0668
    1DIPC   C1A19169   6.682  20.482   2.834 -0.1002  0.3213 -0.1451
    1DIPC   D2A19170   6.677  20.518   3.261  0.0317 -0.0429  0.1495
    1DIPC   D3A19171   7.067  20.390   3.492 -0.0340 -0.1408  0.2604
    1DIPC   C4A19172   7.047  20.188   3.849  0.2903  0.1842 -0.3376
    1DIPC   C1B19173   6.236  20.827   3.172 -0.0141  0.1811  0.0367
    1DIPC   D2B19174   5.933  20.693   3.533 -0.4208  0.3179 -0.2602
    1DIPC   D3B19175   6.042  20.532   3.988  0.0147 -0.0209 -0.1520
    1DIPC   C4B19176   5.780  20.153   4.159  0.5005 -0.0981  0.0091
    1DIPC   NC319177  16.415  26.496   3.693 -0.0696  0.0680  0.0683
    1DIPC   PO419178  16.202  26.961   3.799  0.1688 -0.1313 -0.4795
    1DIPC   GL119179  16.448  26.845   4.129  0.1446  0.0644  0.2405
    1DIPC   GL219180  16.338  26.498   4.159 -0.2382  0.0083 -0.4189
    1DIPC   C1A19181  16.624  27.040   4.479  0.0913 -0.2367 -0.4064
    1DIPC   D2A19182  16.610  27.338   4.860 -0.3034 -0.1753  0.0918
    1DIPC   D3A19183  16.944  27.162   4.956  0.0955 -0.1179  0.0312
    1DIPC   C4A19184  16.827  26.770   4.883 -0.1347 -0.0390 -0.3275
    1DIPC   C1B19185  16.473  26.407   4.547 -0.1293  0.0611 -0.5799
    1DIPC   D2B19186  16.475  26.398   5.011  0.4402 -0.2203  0.2801
    1DIPC   D3B19187  16.190  26.419   5.191 -0.0758 -0.2079 -0.0441
    1DIPC   C4B19188  15.758  26.253   5.212  0.1137 -0.1847  0.0003
    1DIPC   NC319189   1.343   7.778   2.688 -0.2355 -0.1618  0.1477
    1DIPC   PO419190   1.187   8.183   2.632 -0.0050 -0.1350  0.3486
    1DIPC   GL119191   1.357   8.138   3.019 -0.2702 -0.1205 -0.1020
    1DIPC   GL219192   1.278   7.872   3.208  0.4270  0.0360  0.0711
    1DIPC   C1A19193   1.720   8.223   3.236  0.3486  0.1794 -0.0597
    1DIPC   D2A19194   2.040   8.488   3.409 -0.1455 -0.1273  0.0326
    1DIPC   D3A19195   1.858   8.294   3.829  0.0041 -0.1456 -0.1037
    1DIPC   C4A19196   1.497   8.337   3.864 -0.1511 -0.2688 -0.0437
    1DIPC   C1B19197   1.494   7.837   3.607 -0.0895 -0.0593  0.0581
    1DIPC   D2B19198   1.300   7.887   3.975 -0.3991 -0.3331  0.0256
    1DIPC   D3B19199   1.666   7.733   4.112 -0.0720 -0.1775 -0.0674
    1DIPC   C4B19200   2.090   7.848   4.058  0.2061 -0.0876  0.1748
    1DIPC   NC319201  26.807  10.276   2.193 -0.1044  0.0844 -0.2875
    1DIPC   PO419202  26.673  10.012   2.540  0.0734 -0.2059 -0.0277
    1DIPC   GL119203  26.504   9.829   2.907  0.1337 -0.0960  0.0961
    1DIPC   GL219204  26.404   9.421   2.893  0.1561 -0.1879  0.0043
    1DIPC   C1A19205  26.560   9.667   3.267  0.1719  0.1002 -0.1491
    1DIPC   D2A19206  26.938   9.815   3.525  0.1724  0.0221 -0.0861
    1DIPC   D3A19207  26.937   9.905   3.928 -0.0908 -0.4289  0.1666
    1DIPC   C4A19208  26.504  10.069   4.298 -0.1003  0.2367  0.0868
    1DIPC   C1B19209  26.312   9.276   3.332 -0.0374  0.2395  0.5598
    1DIPC   D2B19210  25.958   9.071   3.580  0.1320  0.1924 -0.0557
    1DIPC   D3B19211  25.983   9.520   3.679  0.1873 -0.0185  0.1181
    1DIPC   C4B19212  25.823   9.575   4.035  0.1161 -0.0740  0.1537
    1DIPC   NC319213  25.659   1.524   2.434 -0.0912 -0.0968 -0.1024
    1DIPC   PO419214  26.103   1.725   2.472 -0.0154 -0.1020 -0.1526
    1DIPC   GL119215  26.184   1.850   2.983 -0.2921 -0.0843  0.0725
    1DIPC   GL219216  26.006   2.072   3.225 -0.1168 -0.3554 -0.5033
    1DIPC   C1A19217  26.336   1.542   3.314  0.2368 -0.1303  0.1843
    1DIPC   D2A19218  26.550   1.218   3.495 -0.1458  0.2583 -0.0042
    1DIPC   D3A19219  26.329   1.353   3.842  0.1014 -0.3979 -0.2367
    1DIPC   C4A19220  26.410   1.264   4.299 -0.0623  0.1870 -0.2059
    1DIPC   C1B19221  25.613   2.214   3.529 -0.1402 -0.0290  0.3061
    1DIPC   D2B19222  25.304   2.068   3.517  0.3112  0.3123  0.0936
    1DIPC   D3B19223  25.392   2.108   4.020  0.1833 -0.1562  0.3960
    1DIPC   C4B19224  25.395   2.569   4.217  0.1238 -0.3176  0.1270
    1DIPC   NC319225   8.977   4.011   3.190 -0.1252  0.1622 -0.0782
    1DIPC   PO419226   8.533   3.919   3.294  0.0691  0.1460  0.2599
    1DIPC   GL119227   8.623   3.903   3.664 -0.0002  0.2183  0.0902
    1DIPC   GL219228   8.523   3.622   3.868  0.0100 -0.3433 -0.2216
    1DIPC   C1A19229   8.974   3.730   4.018 -0.2044 -0.1301 -0.2524
    1DIPC   D2A19230   9.445   3.679   4.051  0.0669  0.0002  0.0759
    1DIPC   D3A19231   9.377   4.092   4.147  0.0915 -0.1769  0.2052
    1DIPC   C4A19232   9.348   4.299   4.633 -0.2696  0.4663  0.2076
    1DIPC   C1B19233   8.401   3.695   4.309 -0.2749 -0.0838 -0.5221
    1DIPC   D2B19234   8.437   3.947   4.486 -0.2262 -0.0004 -0.0254
    1DIPC   D3B19235   8.321   3.748   4.875 -0.0208 -0.0511 -0.1649
    1DIPC   C4B19236   8.143   3.404   5.178  0.1850  0.1789  0.2376
    1DIPC   NC319237   1.256  21.716   2.205  0.2038 -0.3783  0.0050
    1DIPC   PO419238   1.097  21.564   2.488  0.0495  0.0601  0.1632
    1DIPC   GL119239   1.318  21.441   2.875 -0.3975 -0.4383 -0.3751
    1DIPC   GL219240   1.579  21.588   3.005  0.1549  0.2791 -0.1038
    1DIPC   C1A19241   1.200  21.149   3.066  0.2749  0.0124 -0.0264
    1DIPC   D2A19242   1.191  20.802   3.478 -0.1619 -0.1782  0.1284
    1DIPC   D3A19243   1.074  20.887   3.927  0.0091  0.2965 -0.3227
    1DIPC   C4A19244   1.040  21.178   4.231 -0.1428  0.0132 -0.2796
    1DIPC   C1B19245   1.388  21.578   3.412  0.0400 -0.0193  0.0584
    1DIPC   D2B19246   1.185  21.751   3.786  0.1331  0.2538 -0.0816
    1DIPC   D3B19247   1.601  21.811   3.966  0.1013 -0.1853  0.0310
    1DIPC   C4B19248   1.907  21.788   4.188  0.1483  0.2727  0.1142
    1DIPC   NC319249  25.051   5.420   2.867 -0.0457 -0.0227  0.0407
    1DIPC   PO419250  24.654   5.279   2.928  0.1187  0.2949  0.1540
    1DIPC   GL119251  24.776   5.302   3.364  0.3512  0.1836 -0.0118
    1DIPC   GL219252  24.473   5.316   3.523 -0.3137 -0.1227  0.0996
    1DIPC   C1A19253  24.796   5.612   3.745 -0.3300  0.1279  0.1482
    1DIPC   D2A19254  24.536   5.800   3.974 -0.1401 -0.0923  0.1208
    1DIPC   D3A19255  24.739   5.648   4.291  0.0759  0.0360 -0.0533
    1DIPC   C4A19256  24.565   5.838   4.584  0.2885 -0.1715  0.0480
    1DIPC   C1B19257  24.566   5.272   3.997 -0.2124  0.2718  0.0441
    1DIPC   D2B19258  24.840   5.057   4.337 -0.0961  0.2223 -0.0683
    1DIPC   D3B19259  25.094   4.889   4.078  0.0116 -0.2094  0.1371
    1DIPC   C4B19260  24.873   4.496   3.837  0.3330 -0.1837 -0.3716
    1DIPC   NC319261  10.634   4.179   3.496 -0.0620  0.0224 -0.1080
    1DIPC   PO419262  10.747   4.322   3.834 -0.1612 -0.0276  0.2425
    1DIPC   GL119263  10.733   4.197   4.292 -0.3648 -0.5553 -0.0790
    1DIPC   GL219264  11.000   4.250   4.515  0.1150 -0.0721 -0.1116
    1DIPC   C1A19265  10.423   4.196   4.576  0.1601  0.2027 -0.0965
    1DIPC   D2A19266  10.360   4.038   4.995  0.0272  0.3801 -0.2699
    1DIPC   D3A19267  10.581   3.723   5.329  0.3920 -0.3872 -0.0955
    1DIPC   C4A19268  11.098   3.829   5.427  0.0631 -0.1983 -0.1816
    1DIPC   C1B19269  10.828   4.253   4.864 -0.2404 -0.0345  0.1183
    1DIPC   D2B19270  10.576   4.542   5.096  0.1466  0.2153 -0.1051
    1DIPC   D3B19271  10.651   4.335   5.401 -0.0965  0.1437  0.0277
    1DIPC   C4B19272  10.256   4.163   5.544 -0.3263 -0.1076  0.0157
    1DIPC   NC319273  25.619  15.534   2.506 -0.2816 -0.1830 -0.1541
    1DIPC   PO419274  25.752  15.150   2.484 -0.0243  0.2136  0.1461
    1DIPC   GL119275  26.026  15.096   2.779  0.3573 -0.2623  0.1597
    1DIPC   GL219276  26.106  15.330   2.842 -0.4447 -0.0300  0.3567
    1DIPC   C1A19277  26.149  14.808   3.112  0.3476 -0.1064 -0.0428
    1DIPC   D2A19278  25.965  14.345   3.232 -0.2465  0.0235  0.1917
    1DIPC   D3A19279  26.038  13.993   3.061  0.2443 -0.0091 -0.2603
    1DIPC   C4A19280  26.359  13.737   3.092 -0.2525  0.0890 -0.0902
    1DIPC   C1B19281  26.370  15.281   3.183 -0.0724 -0.2075  0.1724
    1DIPC   D2B19282  26.436  15.466   3.651 -0.3093 -0.3038 -0.2101
    1DIPC   D3B19283  26.220  15.247   3.934 -0.0082 -0.0976 -0.1220
    1DIPC   C4B19284  26.068  15.330   4.307  0.5076  0.2063 -0.2436
    1DIPC   NC319285  25.390  19.214   2.871 -0.0804 -0.1412 -0.1047
    1DIPC   PO419286  25.641  19.045   2.610 -0.0358  0.1166  0.0482
    1DIPC   GL119287  25.845  19.016   3.064  0.1733 -0.1681 -0.1293
    1DIPC   GL219288  26.074  19.271   3.284  0.0111  0.2485  0.1390
    1DIPC   C1A19289  25.827  18.846   3.535  0.0027 -0.2578  0.1674
    1DIPC   D2A19290  26.126  18.595   3.832 -0.0108 -0.1639 -0.1364
    1DIPC   D3A19291  25.844  18.269   3.893  0.0273 -0.1911  0.1301
    1DIPC   C4A19292  25.537  18.267   4.210 -0.0651 -0.2914 -0.0601
    1DIPC   C1B19293  25.604  19.277   3.526 -0.2971 -0.0867 -0.1004
    1DIPC   D2B19294  25.346  19.369   3.773 -0.1413 -0.2192  0.0043
    1DIPC   D3B19295  24.878  19.407   3.821 -0.0602  0.3923  0.1329
    1DIPC   C4B19296  24.624  19.602   4.212  0.1406 -0.1142 -0.1446
    1DIPC   NC319297   8.424  23.816   2.393  0.1814 -0.1024 -0.2410
    1DIPC   PO419298   8.684  24.116   2.401 -0.1898 -0.0520  0.1168
    1DIPC   GL119299   8.910  23.970   2.723 -0.0602 -0.0033 -0.4108
    1DIPC   GL219300   9.063  24.241   2.748  0.2036  0.0670  0.1646
    1DIPC   C1A19301   8.786  23.857   3.162  0.0641  0.1193  0.2969
    1DIPC   D2A19302   8.781  24.127   3.539  0.1304  0.0767  0.0771
    1DIPC   D3A19303   8.589  23.985   3.840  0.0325  0.0359  0.1544
    1DIPC   C4A19304   8.237  24.013   4.005  0.1128  0.1187  0.1978
    1DIPC   C1B19305   8.875  24.460   3.123  0.0241 -0.1812  0.5516
    1DIPC   D2B19306   9.040  24.547   3.492 -0.0673  0.1686 -0.3217
    1DIPC   D3B19307   9.115  24.954   3.245 -0.0908  0.2344 -0.2218
    1DIPC   C4B19308   8.871  25.320   3.325 -0.2819  0.0016 -0.0997
    1DIPC   NC319309   2.365  21.500   2.443 -0.0298 -0.2476 -0.0775
    1DIPC   PO419310   2.594  21.149   2.706  0.0687 -0.2149  0.2085
    1DIPC   GL119311   2.403  21.254   3.026  0.2720 -0.1515 -0.0472
    1DIPC   GL219312   2.084  21.459   2.908 -0.2358  0.1480  0.0991
    1DIPC   C1A19313   2.156  20.845   3.187  0.0499  0.3428 -0.1170
    1DIPC   D2A19314   1.747  20.625   3.220 -0.1085  0.0829  0.0182
    1DIPC   D3A19315   1.973  20.397   3.534 -0.1464 -0.2391  0.2286
    1DIPC   C4A19316   1.837  20.258   3.944 -0.0837 -0.3202 -0.0955
    1DIPC   C1B19317   1.966  21.277   3.233  0.2688  0.0994 -0.0354
    1DIPC   D2B19318   1.578  21.125   3.372 -0.1008 -0.0118  0.0198
    1DIPC   D3B19319   1.651  20.722   3.760  0.0865 -0.3446  0.0281
    1DIPC   C4B19320   1.900  20.792   4.124 -0.0753  0.2522 -0.2819
    1DIPC   NC319321  12.572  27.057   3.709  0.0895  0.2434  0.0698
    1DIPC   PO419322  12.966  26.920   4.006  0.2589 -0.1390 -0.1669
    1DIPC   GL119323  12.899  27.138   4.414  0.4081  0.1319 -0.0606
    1DIPC   GL219324  13.175  27.210   4.527  0.1468 -0.0781 -0.5311
    1DIPC   C1A19325  12.617  26.825   4.681 -0.0590  0.1553 -0.4694
    1DIPC   D2A19326  12.289  26.525   4.815  0.0360 -0.1616 -0.1179
    1DIPC   D3A19327  11.879  26.323   4.824 -0.2342 -0.0655  0.0048
    1DIPC   C4A19328  11.738  25.882   4.766 -0.0520  0.3639  0.2055
    1DIPC   C1B19329  12.928  27.137   4.927  0.0027 -0.0666 -0.0662
    1DIPC   D2B19330  12.925  27.052   5.368 -0.1636 -0.2282 -0.1474
    1DIPC   D3B19331  12.657  27.194   5.635  0.0137  0.0499  0.0261
    1DIPC   C4B19332  12.348  27.565   5.554  0.0178  0.0416 -0.3578
    1DIPC   NC319333  26.873  21.469   2.504  0.0190 -0.1390 -0.1962
    1DIPC   PO419334  26.903  21.042   2.767 -0.0664  0.1356  0.1210
    1DIPC   GL119335  26.965  20.822   3.164  0.1773 -0.1664 -0.1869
    1DIPC   GL219336  26.784  20.665   3.472  0.2705  0.2350  0.0899
    1DIPC   C1A19337  27.335  20.722   3.505 -0.0286  0.0048 -0.2495
    1DIPC   D2A19338  27.721  20.409   3.505  0.1895 -0.0143  0.0959
    1DIPC   D3A19339  27.801  20.461   3.900 -0.2848  0.1716  0.1340
    1DIPC   C4A19340  27.992  20.710   4.102 -0.0406  0.0880 -0.0358
    1DIPC   C1B19341  26.494  20.888   3.749  0.0596  0.3479 -0.1160
    1DIPC   D2B19342  26.488  20.781   4.177 -0.0982 -0.0041  0.2086
    1DIPC   D3B19343  26.835  21.044   4.420 -0.0061 -0.1851  0.3997
    1DIPC   C4B19344  26.834  21.188   4.754  0.0258 -0.0146 -0.1198
    1DIPC   NC319345  28.823  13.990   2.380  0.2897 -0.2026  0.1402
    1DIPC   PO419346  29.128  14.257   2.673  0.2657 -0.0219  0.1468
    1DIPC   GL119347  29.146  14.615   2.812  0.0533 -0.1073  0.2405
    1DIPC   GL219348  28.782  14.653   2.919  0.2804 -0.1640 -0.1918
    1DIPC   C1A19349  29.127  14.863   3.189  0.0247  0.0570 -0.0652
    1DIPC   D2A19350  29.019  14.840   3.686 -0.1175  0.1400  0.0685
    1DIPC   D3A19351  29.487  14.812   3.624  0.2082  0.2103  0.0843
    1DIPC   C4A19352  29.599  15.031   3.276 -0.0446 -0.0099 -0.2120
    1DIPC   C1B19353  28.653  14.767   3.316 -0.0393  0.0454 -0.2112
    1DIPC   D2B19354  28.455  14.643   3.721 -0.2939 -0.3202 -0.2302
    1DIPC   D3B19355  28.152  14.890   3.513  0.0379  0.0822  0.0299
    1DIPC   C4B19356  27.706  14.636   3.507 -0.0197  0.2489 -0.1048
    1DIPC   NC319357   2.598   7.448   1.987 -0.1234 -0.0899 -0.1304
    1DIPC   PO419358   2.292   7.272   2.185  0.2304  0.0184 -0.1467
    1DIPC   GL119359   2.009   7.349   2.551  0.1937  0.2351 -0.2285
    1DIPC   GL219360   2.265   7.566   2.624 -0.4770  0.0061  0.0122
    1DIPC   C1A19361   1.802   7.370   2.931  0.2020 -0.0053  0.2069
    1DIPC   D2A19362   1.435   7.426   3.287  0.0568  0.1318 -0.2997
    1DIPC   D3A19363   1.524   6.984   3.636 -0.0274 -0.0572  0.2039
    1DIPC   C4A19364   1.198   6.873   3.838  0.1781  0.2701 -0.0301
    1DIPC   C1B19365   2.432   7.335   2.951  0.0830  0.0803 -0.1013
    1DIPC   D2B19366   2.153   7.213   3.340  0.0030 -0.0023  0.2871
    1DIPC   D3B19367   2.372   6.797   3.368  0.1804 -0.1303  0.1540
    1DIPC   C4B19368   2.800   6.990   3.087 -0.1267  0.2131 -0.3362
    1DIPC   NC319369   7.705  21.192   2.139  0.0569  0.1876  0.2874
    1DIPC   PO419370   7.285  21.125   2.393 -0.0233  0.0059  0.0786
    1DIPC   GL119371   7.031  21.097   2.798 -0.2522  0.0940 -0.1799
    1DIPC   GL219372   6.943  21.373   2.925 -0.0784  0.1829 -0.0402
    1DIPC   C1A19373   7.091  20.779   3.154 -0.2628  0.0061 -0.0541
    1DIPC   D2A19374   7.177  20.243   3.046  0.1666 -0.2224  0.0853
    1DIPC   D3A19375   7.520  20.112   3.324  0.3655  0.2959 -0.1397
    1DIPC   C4A19376   7.601  20.453   3.652 -0.0931 -0.2469  0.2067
    1DIPC   C1B19377   7.264  21.249   3.317  0.0890 -0.0436  0.0315
    1DIPC   D2B19378   7.116  21.248   3.851  0.0459  0.2098  0.0345
    1DIPC   D3B19379   6.689  21.119   3.994  0.1608  0.1119  0.0880
    1DIPC   C4B19380   6.351  20.969   3.661  0.2420 -0.2008  0.2000
    1DIPC   NC319381  14.017  21.950   2.682 -0.1227 -0.0188 -0.0905
    1DIPC   PO419382  13.642  21.715   2.928 -0.0046  0.2016  0.1135
    1DIPC   GL119383  13.828  21.823   3.199 -0.0519  0.1143  0.1252
    1DIPC   GL219384  14.064  21.608   3.264 -0.0124 -0.1650 -0.0198
    1DIPC   C1A19385  13.932  22.069   3.516 -0.0456 -0.2894 -0.1392
    1DIPC   D2A19386  13.726  22.304   3.705 -0.0312  0.1882 -0.0006
    1DIPC   D3A19387  13.706  22.386   4.181 -0.0562  0.0328 -0.1622
    1DIPC   C4A19388  13.862  22.154   4.475  0.1207 -0.1815 -0.0048
    1DIPC   C1B19389  14.018  21.627   3.689 -0.4496  0.1569 -0.0316
    1DIPC   D2B19390  13.806  21.832   3.972  0.3117 -0.1529 -0.2955
    1DIPC   D3B19391  14.161  22.059   3.998 -0.1731 -0.0066  0.0827
    1DIPC   C4B19392  14.408  22.153   4.321  0.2056  0.3633 -0.1949
    1DIPC   NC319393   6.826   9.773   2.718  0.0540 -0.2125 -0.0793
    1DIPC   PO419394   6.449   9.554   2.958 -0.0134 -0.0543 -0.1041
    1DIPC   GL119395   6.480   9.677   3.370 -0.0959  0.1668  0.3122
    1DIPC   GL219396   6.199   9.946   3.384 -0.1642 -0.3833 -0.1453
    1DIPC   C1A19397   6.613  10.044   3.645 -0.2434 -0.0554  0.1146
    1DIPC   D2A19398   6.940  10.133   3.933 -0.1358 -0.1542  0.1639
    1DIPC   D3A19399   6.743   9.735   4.221  0.2488  0.1005 -0.2298
    1DIPC   C4A19400   6.360   9.685   4.228 -0.0110  0.0358 -0.1863
    1DIPC   C1B19401   6.131   9.653   3.724  0.0350  0.0390  0.4371
    1DIPC   D2B19402   5.844   9.484   4.088  0.0282 -0.1240 -0.0626
    1DIPC   D3B19403   5.569   9.806   3.991 -0.1230 -0.0852  0.0015
    1DIPC   C4B19404   5.218   9.706   4.278 -0.0027  0.1059  0.0683
    1DIPC   NC319405   6.053  13.495   2.581 -0.2940 -0.1367  0.1995
    1DIPC   PO419406   6.279  13.499   2.998 -0.1518  0.0481  0.2117
    1DIPC   GL119407   6.362  13.800   3.276 -0.0301 -0.3740 -0.1760
    1DIPC   GL219408   6.613  13.641   3.526  0.2025  0.3637  0.2285
    1DIPC   C1A19409   6.551  14.139   3.422  0.4251 -0.1185  0.1366
    1DIPC   D2A19410   6.579  14.491   3.728  0.1749 -0.2561 -0.2224
    1DIPC   D3A19411   6.454  14.776   4.116  0.4747  0.0375 -0.1381
    1DIPC   C4A19412   6.811  14.944   4.281  0.3195 -0.0373 -0.2209
    1DIPC   C1B19413   6.592  13.693   3.856 -0.1225 -0.1059  0.2730
    1DIPC   D2B19414   6.504  14.063   4.076 -0.2415  0.1382  0.3649
    1DIPC   D3B19415   6.754  13.759   4.417 -0.0080  0.0936  0.0197
    1DIPC   C4B19416   7.054  13.692   4.784  0.0456 -0.1258 -0.0230
    1DIPC   NC319417  13.348   4.177   3.655  0.1203  0.3017 -0.1147
    1DIPC   PO419418  12.938   4.227   3.913 -0.0329  0.0316  0.1204
    1DIPC   GL119419  13.060   4.302   4.323  0.0989  0.2564 -0.0077
    1DIPC   GL219420  13.359   4.140   4.318 -0.0272 -0.3973 -0.1298
    1DIPC   C1A19421  13.064   4.209   4.726  0.1872 -0.0999 -0.0236
    1DIPC   D2A19422  13.435   4.103   5.029 -0.1156  0.1230  0.1454
    1DIPC   D3A19423  13.672   4.289   5.357 -0.0110 -0.0154  0.1249
    1DIPC   C4A19424  14.077   4.157   5.575 -0.1305  0.1047 -0.0346
    1DIPC   C1B19425  13.708   4.123   4.622  0.2122  0.0964 -0.0234
    1DIPC   D2B19426  13.924   3.793   4.833 -0.1384 -0.0412  0.1797
    1DIPC   D3B19427  14.014   3.900   5.159  0.2678 -0.1057  0.0025
    1DIPC   C4B19428  13.774   3.713   5.534 -0.2762 -0.0727  0.0430
    1DIPC   NC319429  17.195   5.661   3.160 -0.0031  0.0531 -0.0398
    1DIPC   PO419430  17.371   5.471   3.545 -0.2592  0.1392 -0.0544
    1DIPC   GL119431  17.305   5.235   3.901 -0.1367  0.0416 -0.1739
    1DIPC   GL219432  16.989   5.178   4.023 -0.2618  0.2269 -0.1638
    1DIPC   C1A19433  17.597   5.303   4.177  0.1131  0.2045  0.0094
    1DIPC   D2A19434  17.999   5.493   4.260 -0.2918 -0.1539  0.3948
    1DIPC   D3A19435  17.858   5.427   4.621  0.1760  0.2034 -0.1838
    1DIPC   C4A19436  17.969   5.125   4.982  0.0191  0.2480 -0.0656
    1DIPC   C1B19437  17.185   5.034   4.337  0.2186  0.1278 -0.1950
    1DIPC   D2B19438  17.084   4.666   4.592 -0.1081 -0.2359  0.0391
    1DIPC   D3B19439  17.113   4.921   4.920  0.1122 -0.0153 -0.0657
    1DIPC   C4B19440  16.898   4.749   5.144 -0.0747 -0.2326  0.1116
    1DIPC   NC319441   4.020  24.998   2.322  0.0570  0.0297 -0.2016
    1DIPC   PO419442   4.117  24.752   2.760 -0.0276  0.1136 -0.0772
    1DIPC   GL119443   4.302  24.824   3.119  0.1818 -0.0044  0.1076
    1DIPC   GL219444   4.146  25.013   3.402 -0.0116  0.0207  0.0512
    1DIPC   C1A19445   4.430  24.574   3.500  0.1039 -0.1263 -0.0425
    1DIPC   D2A19446   4.730  24.550   3.838  0.0234  0.1195  0.2306
    1DIPC   D3A19447   5.037  24.507   3.510 -0.2647 -0.0191 -0.2854
    1DIPC   C4A19448   4.753  24.416   3.118 -0.1226  0.2435  0.1752
    1DIPC   C1B19449   4.295  24.917   3.920  0.1671 -0.3919  0.1185
    1DIPC   D2B19450   4.460  24.653   4.301 -0.0772 -0.2692  0.0065
    1DIPC   D3B19451   4.710  24.658   4.716 -0.0885 -0.0948 -0.0934
    1DIPC   C4B19452   5.119  24.825   4.655 -0.0144 -0.1543  0.1948
    1DIPC   NC319453   7.703  23.068   2.077  0.1576  0.3601  0.2366
    1DIPC   PO419454   7.652  23.337   2.597  0.2289  0.2392 -0.2617
    1DIPC   GL119455   7.760  23.435   2.950  0.0349 -0.2154  0.0624
    1DIPC   GL219456   7.899  23.301   3.234  0.2622 -0.0367  0.2865
    1DIPC   C1A19457   7.734  23.820   3.146  0.1400 -0.0758  0.1817
    1DIPC   D2A19458   7.670  24.029   3.500  0.0494  0.0638  0.2228
    1DIPC   D3A19459   7.443  24.172   3.828  0.0916  0.1468 -0.3371
    1DIPC   C4A19460   7.698  24.044   4.146  0.1236 -0.1487 -0.1539
    1DIPC   C1B19461   7.882  23.539   3.613 -0.1978 -0.1166  0.1547
    1DIPC   D2B19462   8.055  23.577   4.055  0.4059 -0.0403 -0.2326
    1DIPC   D3B19463   8.440  23.496   4.058  0.1388 -0.1172 -0.0290
    1DIPC   C4B19464   8.653  23.390   4.400 -0.3937 -0.1123  0.1316
    1DIPC   NC319465  21.430  22.339   3.137  0.1712 -0.1154 -0.0127
    1DIPC   PO419466  21.589  21.944   3.174  0.0263  0.1904  0.1662
    1DIPC   GL119467  21.376  21.678   3.513  0.1009 -0.0527  0.3586
    1DIPC   GL219468  21.615  21.549   3.627 -0.0114 -0.2637  0.1767
    1DIPC   C1A19469  21.210  21.679   3.919  0.1916 -0.1189  0.3742
    1DIPC   D2A19470  20.775  21.610   4.135  0.3028 -0.0365 -0.2809
    1DIPC   D3A19471  20.358  21.756   3.928  0.0548  0.1642  0.2657
    1DIPC   C4A19472  20.450  21.929   3.612 -0.1159  0.0482  0.2763
    1DIPC   C1B19473  21.666  21.721   3.980 -0.1518  0.0860  0.2251
    1DIPC   D2B19474  21.539  21.745   4.390 -0.1717 -0.1661 -0.3005
    1DIPC   D3B19475  21.906  21.878   4.671  0.2636 -0.1396 -0.0076
    1DIPC   C4B19476  22.261  21.656   4.751 -0.1004 -0.1179 -0.3784
    1DIPC   NC319477  27.084  21.473   2.006 -0.4005 -0.2398 -0.2390
    1DIPC   PO419478  27.333  21.649   2.421 -0.0814 -0.0512 -0.0184
    1DIPC   GL119479  27.618  21.440   2.686  0.1389  0.0125  0.2308
    1DIPC   GL219480  27.447  21.224   2.927  0.0971 -0.1783 -0.1971
    1DIPC   C1A19481  27.907  21.478   3.060 -0.0683 -0.2045 -0.1120
    1DIPC   D2A19482  28.280  21.139   3.148 -0.0195 -0.1344 -0.2244
    1DIPC   D3A19483  28.501  21.505   3.076 -0.2039  0.0415  0.0218
    1DIPC   C4A19484  28.408  21.791   3.396  0.2304 -0.0500 -0.0913
    1DIPC   C1B19485  27.301  21.151   3.280  0.0688 -0.1598  0.0177
    1DIPC   D2B19486  26.878  21.173   3.465 -0.0940  0.1893  0.0996
    1DIPC   D3B19487  26.774  21.262   3.993  0.1972 -0.2087 -0.2000
    1DIPC   C4B19488  26.954  21.568   4.305 -0.0670  0.1131  0.0960
    1DIPC   NC319489   5.018  12.496   2.635 -0.1020  0.0859 -0.0650
    1DIPC   PO419490   5.259  12.755   2.772  0.5093 -0.1720 -0.3993
    1DIPC   GL119491   4.892  12.763   3.069 -0.1232  0.6231 -0.0941
    1DIPC   GL219492   4.727  12.994   3.090 -0.0839 -0.0132  0.0731
    1DIPC   C1A19493   4.862  12.706   3.582 -0.0655  0.1832 -0.1634
    1DIPC   D2A19494   5.094  12.566   3.893  0.1607 -0.1433 -0.1538
    1DIPC   D3A19495   4.767  12.946   4.032 -0.1093 -0.1124 -0.0944
    1DIPC   C4A19496   4.762  13.291   3.843  0.2692 -0.1762 -0.0172
    1DIPC   C1B19497   4.919  13.169   3.377 -0.0382  0.2153 -0.0824
    1DIPC   D2B19498   5.277  13.369   3.357  0.1110 -0.3815 -0.2276
    1DIPC   D3B19499   5.389  12.879   3.242 -0.0738 -0.1786  0.4304
    1DIPC   C4B19500   5.329  12.565   3.414 -0.0344 -0.0559 -0.0350
    1DIPC   NC319501   3.081  27.271   3.082  0.1059  0.1280 -0.2153
    1DIPC   PO419502   2.774  27.534   3.215 -0.3535 -0.0918  0.2212
    1DIPC   GL119503   2.831  27.356   3.702  0.0383 -0.0841  0.2049
    1DIPC   GL219504   2.530  27.270   3.912  0.1029  0.1008  0.2855
    1DIPC   C1A19505   3.010  27.227   4.090 -0.0208 -0.0490 -0.1746
    1DIPC   D2A19506   2.982  27.031   4.563 -0.0956 -0.0217  0.2697
    1DIPC   D3A19507   2.774  27.379   4.489 -0.2358 -0.0731 -0.2315
    1DIPC   C4A19508   2.891  27.609   4.893 -0.0634 -0.2577  0.0272
    1DIPC   C1B19509   2.318  27.331   4.326 -0.1555 -0.1341  0.1973
    1DIPC   D2B19510   2.142  27.105   4.630 -0.4330 -0.0209 -0.1422
    1DIPC   D3B19511   2.486  26.887   4.599 -0.1550 -0.1676  0.1687
    1DIPC   C4B19512   2.537  26.531   4.897 -0.2816 -0.1991  0.2137
    1DIPC   NC319513  18.904  26.274   2.708  0.0621 -0.1670 -0.1456
    1DIPC   PO419514  19.072  26.154   3.128 -0.1331  0.0036 -0.0626
    1DIPC   GL119515  18.904  26.170   3.544  0.0395  0.1242  0.2129
    1DIPC   GL219516  18.632  26.364   3.692 -0.0438 -0.0568  0.1164
    1DIPC   C1A19517  18.784  25.900   3.852 -0.0426  0.0445  0.1747
    1DIPC   D2A19518  18.666  25.875   4.270 -0.0811 -0.1202 -0.0223
    1DIPC   D3A19519  18.970  25.535   4.323 -0.1757  0.1516 -0.1470
    1DIPC   C4A19520  19.068  25.507   3.815  0.0336  0.2363  0.2505
    1DIPC   C1B19521  18.798  26.363   4.121  0.3105 -0.0023  0.2798
    1DIPC   D2B19522  18.875  26.562   4.528  0.1032  0.0626 -0.0349
    1DIPC   D3B19523  18.530  26.677   4.428  0.1209 -0.0964  0.0219
    1DIPC   C4B19524  18.303  26.416   4.105  0.0322  0.1550 -0.2435
    1DIPC   NC319525  15.770   5.926   3.980 -0.1351  0.3265 -0.0826
    1DIPC   PO419526  15.458   6.162   3.877 -0.1112 -0.2404 -0.1511
    1DIPC   GL119527  15.433   6.377   4.238 -0.0823 -0.4423 -0.2069
    1DIPC   GL219528  15.135   6.252   4.401 -0.0168 -0.1726 -0.3053
    1DIPC   C1A19529  15.482   6.375   4.754  0.0640  0.0439  0.0897
    1DIPC   D2A19530  15.351   6.326   5.172 -0.1913  0.1281  0.3933
    1DIPC   D3A19531  14.923   6.345   4.968 -0.0547 -0.1590 -0.1699
    1DIPC   C4A19532  14.759   6.580   4.576  0.0885 -0.2892  0.0348
    1DIPC   C1B19533  14.895   6.000   4.553 -0.0968  0.2611 -0.1272
    1DIPC   D2B19534  14.641   5.927   4.967 -0.0796  0.1965  0.0563
    1DIPC   D3B19535  14.584   5.627   5.285 -0.1571  0.0261 -0.1271
    1DIPC   C4B19536  14.980   5.378   5.350  0.2068 -0.0065 -0.0825
    1DIPC   NC319537  27.959   4.339   2.702 -0.3254 -0.1714 -0.1954
    1DIPC   PO419538  28.416   4.139   2.646 -0.0440  0.2689 -0.0790
    1DIPC   GL119539  28.373   4.375   3.007 -0.1454 -0.2617  0.1223
    1DIPC   GL219540  28.529   4.108   3.110 -0.0739  0.1689  0.0331
    1DIPC   C1A19541  28.334   4.591   3.431  0.2528 -0.2558  0.0993
    1DIPC   D2A19542  28.263   4.975   3.610  0.0544 -0.2398 -0.1750
    1DIPC   D3A19543  28.063   5.175   3.815  0.0042  0.0875 -0.0570
    1DIPC   C4A19544  28.064   4.996   4.160 -0.1758 -0.0756  0.3038
    1DIPC   C1B19545  28.238   4.043   3.532 -0.0060 -0.0283 -0.3280
    1DIPC   D2B19546  28.221   4.125   4.011  0.0271 -0.0803 -0.0355
    1DIPC   D3B19547  28.556   4.340   3.880 -0.2865 -0.3134 -0.2682
    1DIPC   C4B19548  28.533   4.769   4.028 -0.2444  0.0078 -0.0161
    1DIPC   NC319549   2.583   8.822   2.331 -0.3640  0.0515  0.0660
    1DIPC   PO419550   2.375   8.366   2.394  0.1732  0.2064  0.1210
    1DIPC   GL119551   2.207   8.033   2.714  0.2439  0.2688 -0.1736
    1DIPC   GL219552   2.055   8.313   2.861 -0.1849  0.3087  0.1622
    1DIPC   C1A19553   2.563   7.804   3.004 -0.1472 -0.0230 -0.1688
    1DIPC   D2A19554   3.038   7.886   3.001 -0.1162 -0.0944  0.3253
    1DIPC   D3A19555   2.888   7.821   3.405  0.0205 -0.0640  0.0758
    1DIPC   C4A19556   2.547   7.433   3.475 -0.3034 -0.2801  0.1828
    1DIPC   C1B19557   2.251   8.114   3.203 -0.0466 -0.0859 -0.0054
    1DIPC   D2B19558   2.337   7.937   3.623  0.0087  0.2023 -0.2759
    1DIPC   D3B19559   2.332   8.318   3.802 -0.0406 -0.1512 -0.0411
    1DIPC   C4B19560   2.157   8.436   4.229  0.1165 -0.2982 -0.0320
    1DIPC   NC319561   8.282  28.510   3.015 -0.2334 -0.3039 -0.1403
    1DIPC   PO419562   8.096  28.208   3.290 -0.1045 -0.2517 -0.1237
    1DIPC   GL119563   8.081  28.261   3.682  0.2310  0.1382 -0.1180
    1DIPC   GL219564   8.261  28.403   3.852 -0.0602  0.0761  0.2706
    1DIPC   C1A19565   7.725  28.064   4.014  0.1818  0.1214  0.3636
    1DIPC   D2A19566   7.597  27.676   4.339  0.5245  0.3116  0.2989
    1DIPC   D3A19567   7.329  27.687   4.669  0.0563  0.3381 -0.0035
    1DIPC   C4A19568   7.124  27.303   4.648 -0.1758  0.1469  0.0851
    1DIPC   C1B19569   7.987  28.490   4.211 -0.1969  0.4111 -0.1295
    1DIPC   D2B19570   7.706  28.551   4.614 -0.2687  0.0380  0.0281
    1DIPC   D3B19571   7.532  29.000   4.794 -0.3796 -0.3711  0.2828
    1DIPC   C4B19572   7.655  29.035   5.209  0.1111 -0.0468  0.0196
    1DIPC   NC319573  21.211  21.824   2.927 -0.0039  0.1446 -0.0419
    1DIPC   PO419574  21.006  22.098   3.279 -0.0674 -0.1432  0.2007
    1DIPC   GL119575  21.252  22.130   3.641 -0.3335  0.1744  0.1485
    1DIPC   GL219576  21.627  22.123   3.637 -0.1772  0.1660  0.0488
    1DIPC   C1A19577  21.321  22.098   4.069  0.2981 -0.2317 -0.1404
    1DIPC   D2A19578  21.099  21.941   4.362 -0.0294  0.0437 -0.2120
    1DIPC   D3A19579  20.934  22.077   4.791  0.1519 -0.1799 -0.1984
    1DIPC   C4A19580  20.714  21.804   5.006  0.3531 -0.4107 -0.0566
    1DIPC   C1B19581  21.673  22.458   3.863  0.1776  0.0236 -0.1212
    1DIPC   D2B19582  22.021  22.588   4.128 -0.4194  0.0385 -0.3975
    1DIPC   D3B19583  22.028  22.519   4.584  0.1053 -0.1578 -0.1117
    1DIPC   C4B19584  21.727  22.301   4.842  0.0039  0.1929  0.0387
    1DIPC   NC319585   7.096  10.441   2.706 -0.2175 -0.1327 -0.0409
    1DIPC   PO419586   6.997  10.474   2.992 -0.1262  0.3648  0.0204
    1DIPC   GL119587   6.763  10.436   3.312  0.0949  0.1782 -0.2680
    1DIPC   GL219588   6.991  10.644   3.531  0.0292  0.1075  0.0159
    1DIPC   C1A19589   6.318  10.452   3.454  0.3133 -0.2089 -0.1686
    1DIPC   D2A19590   5.996  10.132   3.771 -0.2236 -0.2129  0.3136
    1DIPC   D3A19591   6.047  10.055   4.154  0.0480  0.4559  0.2298
    1DIPC   C4A19592   5.867   9.850   4.469  0.2696 -0.0713  0.0848
    1DIPC   C1B19593   6.667  10.646   3.767  0.1079  0.0152  0.0702
    1DIPC   D2B19594   6.457  10.373   3.995 -0.2583 -0.0391  0.1414
    1DIPC   D3B19595   6.749  10.342   4.393  0.0726  0.1008 -0.0577
    1DIPC   C4B19596   7.013  10.628   4.601 -0.0048 -0.2635  0.0676
    1DIPC   NC319597   1.967   6.208   2.190  0.2902 -0.0697 -0.0764
    1DIPC   PO419598   1.609   5.992   2.398 -0.1636  0.2330  0.2660
    1DIPC   GL119599   1.241   5.992   2.726  0.0928  0.4021  0.0437
    1DIPC   GL219600   0.972   5.807   2.655  0.0411 -0.1929  0.2495
    1DIPC   C1A19601   1.099   5.971   3.136  0.0356 -0.1859 -0.0825
    1DIPC   D2A19602   1.453   5.857   3.497  0.0275  0.7739  0.0947
    1DIPC   D3A19603   1.249   6.209   3.702 -0.3428  0.0138 -0.2087
    1DIPC   C4A19604   1.480   6.466   3.743  0.2802 -0.0718  0.2545
    1DIPC   C1B19605   0.832   5.447   2.859  0.0756 -0.1512 -0.0278
    1DIPC   D2B19606   0.564   5.154   3.079  0.2998  0.2517  0.3694
    1DIPC   D3B19607   0.302   5.518   3.287 -0.3307  0.0370 -0.1684
    1DIPC   C4B19608   0.085   5.454   3.736 -0.0367 -0.0587 -0.2885
    1DIPC   NC319609  26.620  14.808   1.816 -0.1066 -0.0920  0.1544
    1DIPC   PO419610  26.537  15.117   2.092  0.0846  0.1555  0.1373
    1DIPC   GL119611  26.504  15.095   2.568 -0.3020 -0.0368  0.3909
    1DIPC   GL219612  26.654  15.371   2.684  0.0749  0.0383  0.2699
    1DIPC   C1A19613  26.556  14.922   2.869  0.1539  0.0900 -0.1022
    1DIPC   D2A19614  26.734  14.585   2.953  0.0064  0.1744 -0.3998
    1DIPC   D3A19615  26.474  14.447   3.316  0.3185 -0.3256  0.2799
    1DIPC   C4A19616  26.556  14.425   3.691  0.0813  0.1357  0.2906
    1DIPC   C1B19617  26.885  15.267   3.035 -0.0794  0.0496  0.2027
    1DIPC   D2B19618  26.923  14.889   3.244  0.2135 -0.0510 -0.1799
    1DIPC   D3B19619  26.496  14.924   3.466  0.0880  0.0178 -0.0661
    1DIPC   C4B19620  26.470  14.853   3.975 -0.0224  0.1012 -0.1408
    1DIPC   NC319621  20.024   0.398   2.944 -0.1405 -0.0980  0.0493
    1DIPC   PO419622  19.951  -0.054   3.239  0.1192 -0.3614 -0.1269
    1DIPC   GL119623  19.786  -0.056   3.700  0.0337 -0.0008  0.1325
    1DIPC   GL219624  19.475   0.030   3.814 -0.4802 -0.1929  0.3171
    1DIPC   C1A19625  19.757  -0.309   3.996 -0.3682 -0.2949  0.2063
    1DIPC   D2A19626  19.908  -0.618   4.240 -0.1358  0.0771  0.4608
    1DIPC   D3A19627  19.577  -0.888   4.007 -0.0319  0.0693  0.0241
    1DIPC   C4A19628  19.176  -1.139   4.026  0.3093 -0.3177 -0.1059
    1DIPC   C1B19629  19.547   0.516   3.775 -0.1270  0.2550  0.0228
    1DIPC   D2B19630  19.686   0.871   3.846 -0.0306  0.0751 -0.2481
    1DIPC   D3B19631  19.820   0.726   4.215 -0.2817 -0.1708  0.1104
    1DIPC   C4B19632  20.274   0.329   4.280  0.0034  0.1550  0.2625
    1DIPC   NC319633   7.911   1.233   3.181  0.1142  0.3809  0.0748
    1DIPC   PO419634   7.495   1.179   3.155  0.0053  0.1279 -0.2198
    1DIPC   GL119635   7.589   0.921   3.539 -0.1539  0.0032 -0.0281
    1DIPC   GL219636   7.474   0.654   3.605 -0.1125 -0.1675  0.1793
    1DIPC   C1A19637   7.243   1.085   3.871  0.0692  0.2375 -0.1054
    1DIPC   D2A19638   7.290   1.016   4.278 -0.2737 -0.1274  0.2350
    1DIPC   D3A19639   7.221   1.199   4.679  0.1107  0.0893  0.0036
    1DIPC   C4A19640   7.440   0.983   5.119  0.0281 -0.0601  0.1871
    1DIPC   C1B19641   7.527   0.689   3.936 -0.0492 -0.2550 -0.4647
    1DIPC   D2B19642   7.810   0.982   3.934 -0.2290  0.1273  0.0012
    1DIPC   D3B19643   7.865   1.081   4.364  0.1532  0.1293 -0.1554
    1DIPC   C4B19644   7.820   1.271   4.771 -0.0783 -0.2074 -0.0058
    1DIPC   NC319645  20.352   8.371   3.335  0.0981 -0.1256  0.0165
    1DIPC   PO419646  20.294   8.746   3.075 -0.1452  0.0032  0.0521
    1DIPC   GL119647  20.136   8.831   3.440  0.0987 -0.0739 -0.2589
    1DIPC   GL219648  20.429   8.831   3.600 -0.0246 -0.1912  0.0373
    1DIPC   C1A19649  20.006   8.627   3.826  0.3336 -0.2296  0.0452
    1DIPC   D2A19650  19.879   8.158   4.053 -0.4391 -0.0573 -0.5516
    1DIPC   D3A19651  19.601   7.878   4.398  0.2010  0.0474  0.1095
    1DIPC   C4A19652  19.498   7.768   4.811  0.0883 -0.0597 -0.1118
    1DIPC   C1B19653  20.347   8.905   4.077  0.2382  0.0553  0.0237
    1DIPC   D2B19654  20.135   8.630   4.310  0.2673 -0.0956  0.2192
    1DIPC   D3B19655  19.714   8.691   4.336 -0.0990 -0.0657 -0.2065
    1DIPC   C4B19656  19.542   8.961   4.656  0.2281 -0.0558 -0.1419
    1DIPC   NC319657  25.809  28.691   2.394 -0.1891 -0.0245 -0.0530
    1DIPC   PO419658  25.790  28.852   2.848  0.1204  0.1387  0.2234
    1DIPC   GL119659  25.783  28.799   3.263 -0.2083  0.1270 -0.2457
    1DIPC   GL219660  25.991  28.983   3.572  0.1283 -0.2361 -0.1698
    1DIPC   C1A19661  25.794  28.349   3.564  0.0860 -0.2019 -0.2542
    1DIPC   D2A19662  25.686  27.913   3.684 -0.1169  0.0693  0.0403
    1DIPC   D3A19663  25.533  28.264   3.952 -0.1117  0.2667 -0.0097
    1DIPC   C4A19664  25.419  28.376   4.332  0.1076 -0.0252 -0.1637
    1DIPC   C1B19665  25.903  28.723   3.801 -0.1954  0.3598 -0.0900
    1DIPC   D2B19666  25.836  28.564   4.252  0.0211 -0.1862 -0.2128
    1DIPC   D3B19667  25.825  28.890   4.527 -0.0303  0.3201 -0.1240
    1DIPC   C4B19668  26.256  29.064   4.657  0.3094 -0.0497  0.1824
    1DIPC   NC319669  17.852  21.900   3.149 -0.0115 -0.0080  0.1356
    1DIPC   PO419670  17.417  21.707   2.879 -0.0726 -0.0076  0.2017
    1DIPC   GL119671  17.364  21.948   3.288  0.0321  0.0414  0.2394
    1DIPC   GL219672  17.560  21.869   3.592 -0.0630  0.3273  0.0548
    1DIPC   C1A19673  17.151  22.279   3.490  0.1486 -0.1646 -0.2069
    1DIPC   D2A19674  16.880  22.585   3.518 -0.0318  0.0642  0.3950
    1DIPC   D3A19675  17.032  22.947   3.755  0.2731 -0.1424 -0.2666
    1DIPC   C4A19676  17.254  23.078   4.065  0.0289  0.0123  0.0089
    1DIPC   C1B19677  17.185  21.761   3.799 -0.2791 -0.2623 -0.0682
    1DIPC   D2B19678  17.115  21.667   4.283  0.1726 -0.1265 -0.2684
    1DIPC   D3B19679  16.730  21.456   4.279  0.2848 -0.1173  0.0286
    1DIPC   C4B19680  16.337  21.696   4.369  0.2238 -0.0604 -0.1108
    1DIPC   NC319681  23.528   7.160   2.524 -0.1121 -0.1338 -0.3454
    1DIPC   PO419682  23.507   6.808   2.575  0.0917 -0.0069 -0.0195
    1DIPC   GL119683  23.865   6.894   2.834  0.2394  0.1455  0.1834
    1DIPC   GL219684  23.995   6.632   3.018  0.1547  0.1197 -0.0581
    1DIPC   C1A19685  24.190   7.047   3.101  0.0287 -0.1362  0.0478
    1DIPC   D2A19686  24.472   6.895   3.193  0.0981  0.1039  0.2211
    1DIPC   D3A19687  24.549   6.634   3.628 -0.0007 -0.1487 -0.3619
    1DIPC   C4A19688  24.469   6.846   4.112  0.0258  0.1651  0.0157
    1DIPC   C1B19689  24.097   6.325   3.396  0.1331  0.0577 -0.1543
    1DIPC   D2B19690  24.300   6.173   3.794  0.1294  0.0922 -0.1088
    1DIPC   D3B19691  24.503   6.087   3.511 -0.0959  0.2251  0.0916
    1DIPC   C4B19692  24.171   5.871   3.214 -0.0139 -0.0411 -0.0776
    1DIPC   NC319693  27.459  26.799   2.641  0.0458  0.1193  0.0970
    1DIPC   PO419694  27.672  26.745   3.037 -0.3348 -0.0107  0.0153
    1DIPC   GL119695  27.826  26.765   3.463  0.0175 -0.3737 -0.3086
    1DIPC   GL219696  27.724  27.040   3.670 -0.2284  0.0525 -0.1413
    1DIPC   C1A19697  28.051  26.813   3.853 -0.1107  0.2135  0.3264
    1DIPC   D2A19698  28.014  26.740   4.237 -0.0619 -0.2647  0.0854
    1DIPC   D3A19699  28.413  26.960   4.237  0.0368 -0.1480 -0.0333
    1DIPC   C4A19700  28.605  27.239   4.450 -0.0108  0.1762  0.0133
    1DIPC   C1B19701  27.582  26.636   3.944  0.0198  0.2058 -0.1308
    1DIPC   D2B19702  27.279  26.406   4.161 -0.0213  0.2557  0.0689
    1DIPC   D3B19703  27.310  26.102   4.454  0.0415 -0.0388 -0.4299
    1DIPC   C4B19704  27.354  26.190   4.878 -0.3038  0.1645 -0.3097
    1DIPC   NC319705  23.298   4.778   2.608 -0.2900 -0.1197 -0.1746
    1DIPC   PO419706  23.570   4.536   2.438  0.1807  0.0159 -0.2366
    1DIPC   GL119707  23.641   4.549   2.877  0.0237 -0.1179 -0.0682
    1DIPC   GL219708  23.564   4.221   2.917 -0.2608 -0.1233  0.1455
    1DIPC   C1A19709  23.817   4.847   3.148  0.3163  0.0221  0.0194
    1DIPC   D2A19710  24.245   4.944   3.179  0.3101 -0.1500  0.1345
    1DIPC   D3A19711  24.584   4.804   3.260 -0.1146 -0.0510  0.4397
    1DIPC   C4A19712  24.694   4.893   3.601 -0.2364 -0.0498 -0.2058
    1DIPC   C1B19713  23.869   4.360   3.312  0.1359 -0.4279  0.1375
    1DIPC   D2B19714  24.051   4.654   3.499 -0.1599  0.0577 -0.1250
    1DIPC   D3B19715  23.960   4.496   3.847 -0.0119  0.1310  0.0355
    1DIPC   C4B19716  23.895   4.653   4.259 -0.0119 -0.3514  0.3777
    1DIPC   NC319717  18.203   2.152   2.604 -0.2225 -0.3426 -0.0611
    1DIPC   PO419718  18.040   2.024   3.000 -0.1686 -0.0727  0.1857
    1DIPC   GL119719  17.867   2.041   3.429 -0.0499 -0.0658  0.1317
    1DIPC   GL219720  17.664   2.303   3.424  0.2389  0.0394 -0.1085
    1DIPC   C1A19721  18.122   1.947   3.815 -0.0568  0.2516  0.1582
    1DIPC   D2A19722  18.060   2.120   4.253  0.0797  0.2679  0.0119
    1DIPC   D3A19723  18.203   2.445   4.554  0.1086  0.0375 -0.0867
    1DIPC   C4A19724  18.510   2.447   4.846 -0.1439 -0.3496 -0.0604
    1DIPC   C1B19725  18.039   2.404   3.684  0.0049  0.0938 -0.2220
    1DIPC   D2B19726  18.327   2.742   3.678  0.0630  0.0255  0.2170
    1DIPC   D3B19727  18.083   2.906   4.149  0.0577  0.0638 -0.0733
    1DIPC   C4B19728  18.433   2.976   4.521  0.0808 -0.2243 -0.0431
    1DIPC   NC319729  23.745  22.048   3.411 -0.1167  0.0054  0.1219
    1DIPC   PO419730  23.741  21.644   3.458 -0.1600 -0.1248 -0.0076
    1DIPC   GL119731  24.066  21.754   3.733 -0.1772 -0.2148  0.3541
    1DIPC   GL219732  23.842  21.976   3.865 -0.0935  0.0255  0.1115
    1DIPC   C1A19733  24.463  21.563   3.839  0.1755 -0.2292  0.4903
    1DIPC   D2A19734  24.740  21.914   4.027 -0.2884  0.0109 -0.1193
    1DIPC   D3A19735  24.279  22.071   4.235 -0.1313  0.3442 -0.2910
    1DIPC   C4A19736  24.159  22.468   4.092  0.3443 -0.1553 -0.0179
    1DIPC   C1B19737  23.463  21.923   4.229  0.1436 -0.0978 -0.2580
    1DIPC   D2B19738  23.369  22.175   4.583  0.1191  0.0717 -0.2547
    1DIPC   D3B19739  23.518  22.309   4.887 -0.2127  0.0234 -0.0548
    1DIPC   C4B19740  23.294  22.790   4.957 -0.0265 -0.0352 -0.2645
    1DIPC   NC319741   0.196   3.674   2.691 -0.0969  0.3960  0.1181
    1DIPC   PO419742   0.598   3.751   2.610  0.2612  0.0258  0.0578
    1DIPC   GL119743   0.489   3.986   2.983 -0.0226 -0.0617  0.3119
    1DIPC   GL219744   0.723   4.291   3.153 -0.0028 -0.3445  0.0494
    1DIPC   C1A19745   0.497   3.942   3.394  0.2582 -0.0209  0.0435
    1DIPC   D2A19746   0.757   3.694   3.668  0.0145 -0.3844  0.0625
    1DIPC   D3A19747   0.674   4.118   3.829  0.1449  0.0798 -0.2254
    1DIPC   C4A19748   0.516   4.060   4.221  0.1094 -0.1474 -0.1265
    1DIPC   C1B19749   0.517   4.446   3.508 -0.4796 -0.1436 -0.0560
    1DIPC   D2B19750   0.400   4.873   3.663  0.0944  0.0795  0.1551
    1DIPC   D3B19751   0.428   5.201   3.934 -0.2137  0.1198 -0.1407
    1DIPC   C4B19752   0.719   5.443   3.876  0.1514 -0.1827 -0.1219
    1DIPC   NC319753   2.937  19.932   2.182  0.2691  0.0764  0.3364
    1DIPC   PO419754   2.904  19.436   2.214  0.2934 -0.5183 -0.2935
    1DIPC   GL119755   3.047  19.430   2.595  0.0172  0.0670 -0.0298
    1DIPC   GL219756   3.241  19.134   2.654 -0.2687  0.1147  0.1972
    1DIPC   C1A19757   2.808  19.482   3.013  0.0882  0.1112  0.0272
    1DIPC   D2A19758   3.023  19.642   3.409  0.0125  0.1102 -0.0143
    1DIPC   D3A19759   2.885  20.020   3.629 -0.1293 -0.0886 -0.1556
    1DIPC   C4A19760   2.424  20.029   3.842  0.0558 -0.1715  0.6227
    1DIPC   C1B19761   2.873  19.010   2.921 -0.2263 -0.2638  0.0639
    1DIPC   D2B19762   2.613  18.603   3.237  0.0394  0.0126  0.1908
    1DIPC   D3B19763   2.546  18.722   3.671 -0.0821 -0.2078  0.1765
    1DIPC   C4B19764   2.837  18.598   4.007  0.1319  0.0813  0.1612
    1DIPC   NC319765  24.888  25.470   3.480  0.1116  0.0619  0.0949
    1DIPC   PO419766  24.609  25.785   3.290 -0.1246 -0.1871 -0.3488
    1DIPC   GL119767  24.648  25.743   3.827  0.0378  0.1618  0.2599
    1DIPC   GL219768  24.940  25.856   3.887  0.2093 -0.2809  0.2726
    1DIPC   C1A19769  24.552  25.956   4.171  0.1582 -0.5545  0.3889
    1DIPC   D2A19770  24.761  25.828   4.535  0.0053 -0.2583  0.0498
    1DIPC   D3A19771  25.095  25.615   4.827  0.1131 -0.1749  0.4155
    1DIPC   C4A19772  25.445  25.388   4.660  0.1540 -0.4168  0.2313
    1DIPC   C1B19773  25.000  25.574   4.211 -0.1561 -0.1217 -0.2762
    1DIPC   D2B19774  24.958  25.269   4.484 -0.0948  0.1083  0.0678
    1DIPC   D3B19775  24.638  24.967   4.371  0.3489  0.5490  0.0178
    1DIPC   C4B19776  24.595  24.739   3.924  0.1135  0.3017 -0.0312
    1DIPC   NC319777   5.129  26.558   2.888 -0.2790 -0.3955  0.1493
    1DIPC   PO419778   4.948  26.921   3.003  0.2066  0.1423  0.2167
    1DIPC   GL119779   5.106  26.723   3.367 -0.1388  0.0553  0.1693
    1DIPC   GL219780   4.972  26.491   3.395  0.2518  0.4739 -0.2475
    1DIPC   C1A19781   5.134  26.690   3.892 -0.0013 -0.1698 -0.0519
    1DIPC   D2A19782   5.379  26.483   4.179  0.1149  0.1211 -0.1415
    1DIPC   D3A19783   5.440  26.223   4.596 -0.2450 -0.1266  0.0536
    1DIPC   C4A19784   5.276  26.340   4.976  0.0661 -0.0278  0.3172
    1DIPC   C1B19785   5.087  26.152   3.760 -0.2357  0.1641 -0.5422
    1DIPC   D2B19786   5.041  25.783   3.927 -0.0017  0.0985  0.4934
    1DIPC   D3B19787   4.806  25.552   4.415 -0.0285 -0.0453 -0.0539
    1DIPC   C4B19788   4.550  25.130   4.345 -0.0403 -0.1953 -0.0249
    1DIPC   NC319789  12.534   1.825   4.019 -0.3747  0.2154  0.2357
    1DIPC   PO419790  12.643   2.245   4.093 -0.1275 -0.1162 -0.1971
    1DIPC   GL119791  12.864   2.488   4.352  0.0325 -0.1183 -0.1134
    1DIPC   GL219792  12.998   2.226   4.487 -0.1243 -0.1495  0.0627
    1DIPC   C1A19793  12.969   2.912   4.555 -0.3605  0.3927  0.0135
    1DIPC   D2A19794  13.094   3.261   4.744 -0.0553  0.0124 -0.2636
    1DIPC   D3A19795  12.937   3.238   5.196  0.7130  0.2223 -0.0269
    1DIPC   C4A19796  13.201   3.186   5.568  0.1537 -0.1511  0.0132
    1DIPC   C1B19797  13.273   2.275   4.850 -0.2308  0.0158  0.1411
    1DIPC   D2B19798  12.976   2.182   5.176 -0.3783  0.2614  0.0323
    1DIPC   D3B19799  12.659   2.269   4.878 -0.1017 -0.0708  0.4492
    1DIPC   C4B19800  12.396   1.957   4.632  0.2654  0.3317  0.4038
    1DIPC   NC319801   7.824  22.411   2.755 -0.4739 -0.1473  0.3151
    1DIPC   PO419802   7.615  22.775   2.494 -0.0019  0.0755  0.0537
    1DIPC   GL119803   7.858  22.851   2.981 -0.0044  0.1263 -0.0530
    1DIPC   GL219804   7.593  22.788   3.063  0.1041  0.1168 -0.3059
    1DIPC   C1A19805   7.922  22.887   3.455 -0.1693 -0.0036 -0.1596
    1DIPC   D2A19806   7.972  22.963   3.880 -0.0458  0.0653  0.2377
    1DIPC   D3A19807   7.678  23.198   4.125 -0.0286 -0.0844 -0.0022
    1DIPC   C4A19808   7.420  23.428   4.506 -0.4367 -0.1251  0.4746
    1DIPC   C1B19809   7.175  22.595   3.343  0.0420 -0.1300 -0.2469
    1DIPC   D2B19810   7.057  22.163   3.487 -0.1650  0.1400 -0.2206
    1DIPC   D3B19811   7.039  21.751   3.679 -0.0876  0.2385  0.0057
    1DIPC   C4B19812   6.805  21.480   3.446  0.2424 -0.2737  0.3079
    1DIPC   NC319813   0.539  16.547   2.284  0.1882  0.0065  0.1749
    1DIPC   PO419814   0.800  16.211   2.232 -0.4685  0.2029  0.0924
    1DIPC   GL119815   0.978  15.986   2.576  0.1303 -0.3556 -0.1497
    1DIPC   GL219816   1.338  15.932   2.627 -0.0586  0.0491  0.2251
    1DIPC   C1A19817   0.867  15.656   3.012 -0.0048  0.1788  0.0981
    1DIPC   D2A19818   0.802  15.343   3.260 -0.1254  0.2214  0.1218
    1DIPC   D3A19819   1.023  15.395   3.731 -0.0254 -0.0100  0.0037
    1DIPC   C4A19820   0.853  15.284   4.143 -0.2582 -0.0883  0.6274
    1DIPC   C1B19821   1.162  15.522   2.621  0.1870  0.1042  0.1430
    1DIPC   D2B19822   1.149  15.151   2.847  0.0658  0.0304  0.4349
    1DIPC   D3B19823   1.011  14.767   2.604  0.0153  0.1258  0.0210
    1DIPC   C4B19824   0.720  14.447   2.785  0.2114 -0.1156 -0.1701
    1DIPC   NC319825  24.222   0.846   2.649  0.2524 -0.0351  0.0487
    1DIPC   PO419826  24.575   0.573   2.527 -0.2624 -0.0044 -0.0364
    1DIPC   GL119827  24.532   0.711   2.996 -0.2464 -0.3255 -0.4584
    1DIPC   GL219828  24.440   0.486   3.142 -0.1245 -0.0013  0.0802
    1DIPC   C1A19829  24.705   1.012   3.284 -0.1764  0.2667  0.1151
    1DIPC   D2A19830  24.975   1.322   3.532 -0.0205 -0.0247 -0.3150
    1DIPC   D3A19831  25.229   1.687   3.202 -0.1136 -0.3557  0.0867
    1DIPC   C4A19832  25.663   1.631   3.315 -0.2653 -0.1581  0.1251
    1DIPC   C1B19833  24.441   0.662   3.589 -0.0040 -0.0355  0.0239
    1DIPC   D2B19834  24.559   0.564   4.014  0.1577 -0.3111 -0.1550
    1DIPC   D3B19835  24.316   0.805   4.221 -0.0806  0.1497  0.0099
    1DIPC   C4B19836  24.046   1.173   4.303 -0.1050 -0.0969  0.0444
    1DIPC   NC319837   7.030  15.019   2.194  0.0558 -0.0422 -0.0244
    1DIPC   PO419838   6.897  15.398   2.314  0.0026 -0.0271 -0.2327
    1DIPC   GL119839   6.832  15.458   2.792 -0.0921  0.3175 -0.3581
    1DIPC   GL219840   6.983  15.746   2.970  0.1096  0.1329 -0.4665
    1DIPC   C1A19841   6.884  15.327   3.268  0.2753 -0.0427 -0.1092
    1DIPC   D2A19842   6.723  15.537   3.628 -0.2521 -0.1554  0.1987
    1DIPC   D3A19843   6.665  16.070   3.791  0.0133 -0.0221  0.0937
    1DIPC   C4A19844   6.194  16.227   3.954 -0.2924 -0.0063  0.3738
    1DIPC   C1B19845   7.095  15.832   3.471 -0.3217  0.0677 -0.2904
    1DIPC   D2B19846   7.241  15.839   3.837 -0.1232 -0.0146 -0.2499
    1DIPC   D3B19847   6.853  15.693   4.095  0.2463 -0.1719 -0.3186
    1DIPC   C4B19848   6.603  15.355   4.117 -0.1276 -0.0481  0.1439
    1DIPC   NC319849   6.253   9.074   2.956  0.0271 -0.2091  0.0747
    1DIPC   PO419850   6.507   8.701   3.146 -0.0922  0.2030  0.0290
    1DIPC   GL119851   6.461   8.586   3.514  0.1197 -0.2493  0.0549
    1DIPC   GL219852   6.749   8.550   3.592 -0.3227 -0.1210 -0.0004
    1DIPC   C1A19853   6.337   8.515   3.914 -0.1500  0.1504 -0.0572
    1DIPC   D2A19854   5.974   8.511   4.070  0.0325  0.1866 -0.2447
    1DIPC   D3A19855   5.974   8.637   4.479 -0.2830  0.2616 -0.0345
    1DIPC   C4A19856   5.799   8.419   4.861 -0.1486 -0.0638  0.3473
    1DIPC   C1B19857   6.779   8.632   4.075 -0.0508  0.0275 -0.1077
    1DIPC   D2B19858   6.943   8.539   4.452 -0.0502 -0.1904  0.2054
    1DIPC   D3B19859   6.755   8.249   4.696  0.2199  0.0302 -0.2312
    1DIPC   C4B19860   6.302   8.401   4.822 -0.0579 -0.0512  0.3752
    1DIPC   NC319861   6.765   4.037   2.812 -0.0494  0.1463 -0.0945
    1DIPC   PO419862   6.891   3.567   2.992 -0.0822  0.0296 -0.1356
    1DIPC   GL119863   7.022   3.453   3.352  0.2339  0.0541  0.0054
    1DIPC   GL219864   7.160   3.248   3.524 -0.2646  0.2060  0.2195
    1DIPC   C1A19865   6.904   3.649   3.780 -0.0549  0.1512 -0.0041
    1DIPC   D2A19866   6.950   3.797   4.158  0.4221 -0.2699  0.2528
    1DIPC   D3A19867   7.017   4.042   4.679  0.0067 -0.0120  0.0651
    1DIPC   C4A19868   7.379   4.232   4.912 -0.0295 -0.0263  0.1259
    1DIPC   C1B19869   7.209   3.258   4.084 -0.2838  0.1630  0.1663
    1DIPC   D2B19870   7.278   2.979   4.406 -0.2224 -0.0446 -0.0269
    1DIPC   D3B19871   6.996   3.056   4.706  0.2398 -0.0254 -0.0436
    1DIPC   C4B19872   6.946   2.853   5.075 -0.1241 -0.0740 -0.3421
    1DIPC   NC319873  12.348  21.130   2.907  0.2439  0.0623  0.0144
    1DIPC   PO419874  12.610  21.536   2.870  0.0428 -0.0539 -0.0371
    1DIPC   GL119875  12.853  21.587   3.238 -0.0670  0.0363 -0.2092
    1DIPC   GL219876  13.145  21.435   3.330 -0.0482  0.0947  0.1409
    1DIPC   C1A19877  12.914  21.732   3.670 -0.1786  0.1460 -0.3121
    1DIPC   D2A19878  12.859  21.801   4.135 -0.1010  0.0225  0.0296
    1DIPC   D3A19879  13.259  21.612   4.032  0.0491  0.2840  0.0164
    1DIPC   C4A19880  13.608  21.493   4.334 -0.0610  0.2400 -0.0121
    1DIPC   C1B19881  13.430  21.788   3.627  0.0294  0.1335  0.1051
    1DIPC   D2B19882  13.369  22.052   3.925  0.1395  0.1246  0.2049
    1DIPC   D3B19883  13.429  21.961   4.374  0.1014  0.2134 -0.0406
    1DIPC   C4B19884  13.313  22.233   4.684  0.3348  0.1362  0.0264
    1DIPC   NC319885  10.072   6.185   3.396 -0.0639  0.0829  0.1099
    1DIPC   PO419886   9.857   5.838   3.557 -0.1298  0.1539  0.0318
    1DIPC   GL119887   9.590   5.698   3.914  0.2092 -0.0396 -0.1680
    1DIPC   GL219888   9.186   5.692   3.907 -0.3154  0.1525  0.2105
    1DIPC   C1A19889   9.433   5.689   4.310 -0.0518 -0.3551 -0.1023
    1DIPC   D2A19890   9.504   5.543   4.767 -0.0109 -0.0820  0.1627
    1DIPC   D3A19891   9.381   5.146   4.960  0.2303  0.2223 -0.1991
    1DIPC   C4A19892   8.966   4.927   4.833  0.0166  0.0874 -0.1191
    1DIPC   C1B19893   8.898   5.638   4.343 -0.2645 -0.0276 -0.1113
    1DIPC   D2B19894   8.575   5.918   4.629  0.0915  0.1976 -0.0054
    1DIPC   D3B19895   8.564   5.643   4.907 -0.3040  0.0423  0.0072
    1DIPC   C4B19896   8.105   5.576   4.997  0.5735 -0.2296 -0.0483
    1DIPC   NC319897  26.308   1.173   2.712  0.1402  0.0487 -0.0551
    1DIPC   PO419898  26.532   0.917   3.073  0.0676 -0.2041 -0.0362
    1DIPC   GL119899  26.128   1.036   3.183  0.0874 -0.1155 -0.2526
    1DIPC   GL219900  26.108   0.634   3.432  0.5462  0.4438  0.1817
    1DIPC   C1A19901  25.992   1.256   3.524  0.0899 -0.0020 -0.2002
    1DIPC   D2A19902  25.767   1.287   3.895 -0.1635  0.0827  0.1420
    1DIPC   D3A19903  26.052   1.692   4.149  0.2870  0.0415  0.0833
    1DIPC   C4A19904  25.812   1.951   4.486  0.0905  0.2958 -0.4167
    1DIPC   C1B19905  26.134   0.864   3.785 -0.2768  0.2386  0.0989
    1DIPC   D2B19906  26.124   0.881   4.154 -0.1229 -0.4295  0.3806
    1DIPC   D3B19907  26.623   0.895   4.039  0.0441  0.0025  0.1841
    1DIPC   C4B19908  26.860   1.196   4.038 -0.3242 -0.1180 -0.0482
    1DIPC   NC319909  28.987   1.418   2.825  0.1712 -0.1475  0.4274
    1DIPC   PO419910  28.779   1.501   3.153  0.1782  0.0737  0.0510
    1DIPC   GL119911  28.702   1.607   3.520 -0.2424  0.3053 -0.3091
    1DIPC   GL219912  28.483   1.816   3.563 -0.3751 -0.0231 -0.1989
    1DIPC   C1A19913  29.003   1.690   3.850 -0.0143 -0.1730 -0.2305
    1DIPC   D2A19914  29.197   1.288   4.040  0.2382 -0.0291 -0.0278
    1DIPC   D3A19915  28.846   1.154   3.927 -0.1179  0.0577 -0.2688
    1DIPC   C4A19916  28.544   1.484   4.032 -0.2001  0.0150 -0.0214
    1DIPC   C1B19917  28.469   1.973   4.015 -0.2337 -0.0800  0.2747
    1DIPC   D2B19918  28.710   1.927   4.447  0.1223 -0.0130 -0.0981
    1DIPC   D3B19919  29.058   1.917   4.325 -0.1620  0.0924 -0.0949
    1DIPC   C4B19920  29.262   2.286   4.298 -0.0879 -0.1416 -0.2118
    1DIPC   NC319921   4.665  23.834   2.400  0.2424  0.2505  0.0318
    1DIPC   PO419922   4.325  23.928   2.716  0.0921  0.3748 -0.0322
    1DIPC   GL119923   4.301  23.810   3.109  0.1718 -0.0921  0.1098
    1DIPC   GL219924   4.071  23.548   3.244  0.2699  0.0211  0.1445
    1DIPC   C1A19925   4.586  23.503   3.317 -0.2216  0.0345  0.0504
    1DIPC   D2A19926   4.942  23.596   3.621 -0.0195  0.1333  0.0783
    1DIPC   D3A19927   4.749  23.394   3.865 -0.1166  0.1453 -0.0420
    1DIPC   C4A19928   4.867  23.125   4.078 -0.1307 -0.4166  0.1354
    1DIPC   C1B19929   4.172  23.641   3.676  0.0185  0.0990 -0.0538
    1DIPC   D2B19930   4.544  23.792   3.923 -0.0753 -0.2979 -0.0515
    1DIPC   D3B19931   4.852  23.806   4.115  0.0624  0.0780  0.0871
    1DIPC   C4B19932   5.022  24.110   3.966 -0.1455  0.0045  0.1538
    1DIPC   NC319933  27.672  23.790   2.998  0.0216 -0.0890 -0.0563
    1DIPC   PO419934  28.132  23.763   2.864  0.2431 -0.0076  0.1930
    1DIPC   GL119935  28.337  23.873   3.222 -0.0410 -0.0653 -0.0631
    1DIPC   GL219936  28.688  23.905   3.309  0.4349 -0.0846  0.0262
    1DIPC   C1A19937  28.387  24.109   3.670  0.4372 -0.1399 -0.2268
    1DIPC   D2A19938  28.595  23.921   3.958 -0.0317  0.0522 -0.1132
    1DIPC   D3A19939  28.731  23.888   4.395 -0.0976 -0.0654 -0.1543
    1DIPC   C4A19940  28.925  23.595   4.471 -0.3317  0.1468 -0.2972
    1DIPC   C1B19941  28.527  23.600   3.620  0.1208 -0.1683  0.0965
    1DIPC   D2B19942  28.386  23.227   3.645  0.0510 -0.0287 -0.0063
    1DIPC   D3B19943  28.692  22.973   3.912  0.1922 -0.3796  0.0301
    1DIPC   C4B19944  28.723  22.490   3.855 -0.3643 -0.3355 -0.0103
    1DIPC   NC319945   5.158  15.855   2.073 -0.0193 -0.1109  0.2732
    1DIPC   PO419946   4.869  15.730   2.343 -0.4404  0.0325 -0.2226
    1DIPC   GL119947   4.771  15.781   2.830  0.0166 -0.1423 -0.1432
    1DIPC   GL219948   4.828  15.588   3.133  0.0630 -0.1199  0.2981
    1DIPC   C1A19949   4.683  16.092   3.158  0.1374 -0.3575 -0.0993
    1DIPC   D2A19950   4.400  16.265   3.461 -0.0233  0.0702  0.1416
    1DIPC   D3A19951   4.733  16.112   3.747  0.0197  0.3192 -0.0384
    1DIPC   C4A19952   4.933  15.726   3.946  0.0065  0.0785 -0.2351
    1DIPC   C1B19953   4.623  15.672   3.487 -0.2649  0.4717  0.1158
    1DIPC   D2B19954   4.277  15.872   3.780  0.0462 -0.2149  0.0487
    1DIPC   D3B19955   4.401  16.195   4.123  0.2011  0.0702 -0.2315
    1DIPC   C4B19956   4.440  16.525   4.462  0.2686 -0.0060  0.4151
    1DIPC   NC319957  18.020  26.643   3.096  0.0607 -0.0450  0.0213
    1DIPC   PO419958  18.008  26.757   3.519 -0.0390  0.2172 -0.0773
    1DIPC   GL119959  18.135  26.812   3.960 -0.0424 -0.0650  0.0771
    1DIPC   GL219960  18.465  26.871   3.931  0.0950 -0.1148  0.0392
    1DIPC   C1A19961  18.056  26.791   4.442 -0.2166 -0.0893 -0.0412
    1DIPC   D2A19962  18.038  26.812   4.876  0.2959 -0.0267  0.1263
    1DIPC   D3A19963  17.721  26.720   5.194 -0.2332  0.4980  0.0076
    1DIPC   C4A19964  17.748  26.829   5.570 -0.0989 -0.1186 -0.2496
    1DIPC   C1B19965  18.777  27.030   4.130 -0.4281 -0.1729 -0.3706
    1DIPC   D2B19966  18.970  27.308   4.317  0.1143  0.1313 -0.1919
    1DIPC   D3B19967  19.153  26.979   4.494 -0.2281  0.0777 -0.0872
    1DIPC   C4B19968  19.643  26.949   4.568 -0.0688  0.0381  0.1255
    1DIPC   NC319969  24.391   7.320   2.257  0.0496  0.0149 -0.1127
    1DIPC   PO419970  24.672   7.598   2.410 -0.4174  0.0142 -0.2139
    1DIPC   GL119971  24.776   7.353   2.687  0.3273  0.0560 -0.0702
    1DIPC   GL219972  24.477   7.545   2.924  0.0294  0.3004  0.1110
    1DIPC   C1A19973  24.858   7.122   3.015 -0.0714  0.3994 -0.0486
    1DIPC   D2A19974  24.918   6.758   3.286  0.3023 -0.0090  0.1718
    1DIPC   D3A19975  25.170   6.782   3.649 -0.0129 -0.3265  0.3112
    1DIPC   C4A19976  24.912   6.733   3.997 -0.0846 -0.2216  0.1484
    1DIPC   C1B19977  24.500   7.441   3.339  0.3252  0.0255 -0.2891
    1DIPC   D2B19978  24.298   7.096   3.638  0.0461 -0.1941  0.1429
    1DIPC   D3B19979  24.107   7.241   4.070 -0.0777 -0.2383 -0.1770
    1DIPC   C4B19980  23.887   7.022   4.352  0.1314 -0.2509  0.0280
    1DIPC   NC319981   0.306  19.256   2.683 -0.1290  0.0261 -0.0776
    1DIPC   PO419982   0.442  18.824   2.665  0.0375 -0.3169 -0.2143
    1DIPC   GL119983   0.344  18.907   3.017  0.1967 -0.0009  0.1352
    1DIPC   GL219984   0.638  18.759   3.143  0.1354  0.1624 -0.0561
    1DIPC   C1A19985   0.200  18.870   3.443 -0.2226 -0.0675 -0.4512
    1DIPC   D2A19986   0.363  19.025   3.829  0.3289  0.1614  0.0829
    1DIPC   D3A19987   0.392  18.535   3.752  0.2185  0.0706 -0.2400
    1DIPC   C4A19988   0.510  18.368   3.386  0.0111 -0.1302  0.1321
    1DIPC   C1B19989   0.846  18.856   3.626  0.2982 -0.1290 -0.0013
    1DIPC   D2B19990   0.857  19.133   3.930  0.1387 -0.1595  0.0596
    1DIPC   D3B19991   0.990  19.414   4.250  0.0091 -0.1954  0.0236
    1DIPC   C4B19992   0.920  19.788   4.516  0.0557 -0.0140  0.1500
    1DIPC   NC319993   1.706  19.070   2.163 -0.1631  0.0448  0.1230
    1DIPC   PO419994   1.549  19.210   2.507  0.0913 -0.0899 -0.2085
    1DIPC   GL119995   1.650  19.303   2.855  0.0734 -0.0354  0.3725
    1DIPC   GL219996   1.877  19.459   2.966  0.2755 -0.2103 -0.0033
    1DIPC   C1A19997   1.635  19.032   3.231 -0.1471 -0.0215 -0.1143
    1DIPC   D2A19998   1.698  19.115   3.783 -0.1525  0.0385 -0.0025
    1DIPC   D3A19999   1.397  19.219   3.974  0.2415  0.0631 -0.0438
    1DIPC   C4A20000   1.119  18.865   4.269 -0.0106 -0.2131  0.0139
    1DIPC   C1B20001   2.030  19.349   3.399  0.0472  0.0501  0.4108
    1DIPC   D2B20002   2.242  19.225   3.809 -0.4008 -0.1751 -0.0180
    1DIPC   D3B20003   2.676  19.041   3.998  0.1456 -0.1836  0.1369
    1DIPC   C4B20004   3.017  19.284   4.080 -0.0545  0.0575 -0.1288
    1DIPC   NC320005  21.440   1.936   3.199 -0.0908 -0.2352 -0.0333
    1DIPC   PO420006  21.020   2.000   3.184 -0.2982 -0.3796  0.1715
    1DIPC   GL120007  21.214   1.699   3.606  0.2074  0.0228  0.1302
    1DIPC   GL220008  20.937   1.484   3.803  0.0131 -0.1492 -0.4156
    1DIPC   C1A20009  21.503   1.747   3.956  0.0944  0.0310 -0.1437
    1DIPC   D2A20010  21.975   1.796   4.049  0.0695 -0.0205 -0.0639
    1DIPC   D3A20011  22.396   1.458   4.110  0.0139  0.0838 -0.0114
    1DIPC   C4A20012  22.706   1.405   4.399 -0.2230 -0.3104  0.0865
    1DIPC   C1B20013  21.263   1.108   4.008  0.2290 -0.1942  0.1388
    1DIPC   D2B20014  21.391   0.858   4.429  0.1116  0.0136  0.0121
    1DIPC   D3B20015  21.320   0.490   4.159 -0.1154  0.1989  0.2207
    1DIPC   C4B20016  21.530   0.271   3.800  0.2030  0.0366 -0.1410
    1DIPC   NC320017  26.662   4.531   2.589 -0.1278  0.3637 -0.0131
    1DIPC   PO420018  27.013   4.254   2.610  0.2728  0.0638  0.2325
    1DIPC   GL120019  27.027   4.447   2.965  0.0505 -0.0030  0.0694
    1DIPC   GL220020  27.230   4.223   3.213 -0.0488  0.0751  0.1399
    1DIPC   C1A20021  26.684   4.501   3.196  0.0665  0.3792 -0.0440
    1DIPC   D2A20022  26.652   4.290   3.645  0.1827 -0.2133 -0.1715
    1DIPC   D3A20023  26.513   4.497   3.951 -0.1645 -0.0421 -0.2493
    1DIPC   C4A20024  26.117   4.543   3.886  0.0681  0.1309  0.0804
    1DIPC   C1B20025  27.523   4.335   3.538  0.0109 -0.0317 -0.4988
    1DIPC   D2B20026  27.850   4.588   3.865  0.0635 -0.0074 -0.2304
    1DIPC   D3B20027  27.717   4.147   4.015  0.1778 -0.1198  0.1855
    1DIPC   C4B20028  27.350   4.018   4.345 -0.3434  0.0137  0.2687
    1DIPC   NC320029  22.497   5.277   3.003 -0.0895 -0.0080  0.2734
    1DIPC   PO420030  22.837   5.024   3.270 -0.2177 -0.1298  0.0524
    1DIPC   GL120031  22.773   4.716   3.576  0.1160  0.0128 -0.0944
    1DIPC   GL220032  22.551   4.888   3.729  0.0896 -0.1471 -0.0482
    1DIPC   C1A20033  23.050   4.468   3.930 -0.1636 -0.1779 -0.1991
    1DIPC   D2A20034  22.907   4.267   4.263  0.0584 -0.0560  0.0759
    1DIPC   D3A20035  22.997   3.848   3.919 -0.1882  0.2612 -0.1558
    1DIPC   C4A20036  22.719   3.629   3.736 -0.2381 -0.2634  0.3508
    1DIPC   C1B20037  22.628   4.720   4.138 -0.0182 -0.1870  0.0765
    1DIPC   D2B20038  22.559   4.546   4.649 -0.0784 -0.2098  0.1930
    1DIPC   D3B20039  22.145   4.519   4.627  0.0911  0.1585 -0.2770
    1DIPC   C4B20040  21.986   4.593   5.009  0.1608  0.0876 -0.1159
    1DIPC   NC320041  12.008  24.473   3.270 -0.1005 -0.0982  0.3970
    1DIPC   PO420042  11.982  24.919   3.191 -0.2593  0.2515 -0.0586
    1DIPC   GL120043  11.704  24.860   3.516 -0.0206 -0.0231  0.2538
    1DIPC   GL220044  11.763  24.791   3.838  0.1249 -0.2454  0.0243
    1DIPC   C1A20045  11.296  24.672   3.570 -0.1502  0.2461  0.0359
    1DIPC   D2A20046  11.027  24.738   4.025 -0.1238  0.1323  0.3926
    1DIPC   D3A20047  10.627  24.387   3.954 -0.1248 -0.0313  0.1676
    1DIPC   C4A20048  10.531  24.189   4.411 -0.1086 -0.2031  0.1418
    1DIPC   C1B20049  11.439  25.035   4.194  0.2124 -0.2105  0.1235
    1DIPC   D2B20050  11.178  25.304   4.394 -0.1612 -0.0779 -0.0894
    1DIPC   D3B20051  10.924  25.140   4.717 -0.0945 -0.3664 -0.4285
    1DIPC   C4B20052  10.603  25.404   4.962  0.0017  0.0233  0.0289
    1DIPC   NC320053  20.779  23.042   2.810  0.0297 -0.2106  0.1714
    1DIPC   PO420054  20.451  22.824   2.972  0.2321 -0.1141  0.0830
    1DIPC   GL120055  20.651  23.160   3.275 -0.2155 -0.3960 -0.0357
    1DIPC   GL220056  20.869  23.199   3.574  0.1152 -0.0406  0.0655
    1DIPC   C1A20057  20.388  23.254   3.747  0.2281 -0.1532  0.0490
    1DIPC   D2A20058  20.276  23.578   4.054 -0.1475 -0.2064 -0.0494
    1DIPC   D3A20059  20.004  23.460   4.455  0.2565  0.0253  0.2187
    1DIPC   C4A20060  19.551  23.689   4.651 -0.0222  0.0648  0.2235
    1DIPC   C1B20061  20.682  22.866   3.770  0.1173  0.0010 -0.0671
    1DIPC   D2B20062  20.450  22.664   4.085 -0.2424 -0.0321 -0.0997
    1DIPC   D3B20063  20.195  23.035   4.202 -0.3097 -0.1474 -0.1893
    1DIPC   C4B20064  19.812  22.975   4.580  0.0797 -0.0245  0.0286
    1DIPC   NC320065   4.125  16.192   2.227 -0.3352 -0.2249  0.1331
    1DIPC   PO420066   3.891  15.800   2.376 -0.1069 -0.3654  0.1295
    1DIPC   GL120067   4.031  15.783   2.822  0.3143 -0.0245  0.1905
    1DIPC   GL220068   3.759  15.746   2.983 -0.0206 -0.1461 -0.1822
    1DIPC   C1A20069   4.273  15.728   3.120 -0.1240  0.3718 -0.0059
    1DIPC   D2A20070   4.316  15.287   3.408  0.1359 -0.0789  0.1455
    1DIPC   D3A20071   4.690  15.095   3.264  0.0829 -0.0453 -0.3830
    1DIPC   C4A20072   4.860  14.772   3.468 -0.3127  0.1307  0.2390
    1DIPC   C1B20073   3.483  16.087   3.116 -0.2755 -0.0939 -0.0100
    1DIPC   D2B20074   3.451  16.448   2.825 -0.0453  0.2414 -0.1970
    1DIPC   D3B20075   3.823  16.509   3.077  0.1557  0.3898 -0.1174
    1DIPC   C4B20076   3.834  16.453   3.560  0.0986 -0.0617  0.0981
    1DIPC   NC320077   5.810   5.643   3.437 -0.0080  0.0726  0.0797
    1DIPC   PO420078   5.636   6.047   3.185 -0.1435  0.0288  0.2061
    1DIPC   GL120079   5.440   6.142   3.551  0.0796 -0.0324 -0.2093
    1DIPC   GL220080   5.418   6.501   3.544  0.0949 -0.1244  0.0053
    1DIPC   C1A20081   5.204   6.083   3.961 -0.0327 -0.3348 -0.1654
    1DIPC   D2A20082   4.815   6.236   4.241  0.1881 -0.2410  0.2807
    1DIPC   D3A20083   4.526   6.647   4.373  0.0185  0.1651 -0.1160
    1DIPC   C4A20084   4.594   6.924   4.720  0.2324  0.1486  0.2859
    1DIPC   C1B20085   5.613   6.492   3.916  0.0309 -0.0630 -0.1684
    1DIPC   D2B20086   5.520   6.314   4.264 -0.0270 -0.3134  0.1175
    1DIPC   D3B20087   5.808   6.786   4.315 -0.0528 -0.0204  0.2213
    1DIPC   C4B20088   5.868   6.915   4.750 -0.2972 -0.0278 -0.0489
    1DIPC   NC320089   2.847  15.489   2.492  0.0157  0.1486 -0.1365
    1DIPC   PO420090   2.518  15.759   2.263  0.0934 -0.0657  0.1017
    1DIPC   GL120091   2.607  15.871   2.637  0.2255 -0.0779  0.0618
    1DIPC   GL220092   2.949  15.890   2.777 -0.0329 -0.3061 -0.1471
    1DIPC   C1A20093   2.632  15.855   3.188  0.0732  0.2887  0.0477
    1DIPC   D2A20094   2.687  15.677   3.563  0.1883  0.0731 -0.2036
    1DIPC   D3A20095   2.564  15.282   3.366 -0.1173 -0.3783  0.0999
    1DIPC   C4A20096   2.158  15.346   3.089 -0.1882 -0.2355 -0.0816
    1DIPC   C1B20097   2.970  16.210   3.116 -0.2458  0.0184 -0.0809
    1DIPC   D2B20098   3.162  16.198   3.482  0.2781  0.0519 -0.1702
    1DIPC   D3B20099   3.267  16.600   3.274 -0.0315 -0.1704  0.2644
    1DIPC   C4B20100   3.576  16.856   3.434  0.1578 -0.0436 -0.0232
    1DIPC   NC320101  11.189  27.042   3.128 -0.1661  0.1827 -0.1797
    1DIPC   PO420102  10.826  26.854   3.265 -0.1794 -0.1119 -0.1532
    1DIPC   GL120103  10.923  26.613   3.546 -0.0784 -0.2570  0.0449
    1DIPC   GL220104  10.846  26.634   3.896 -0.0589  0.3914  0.1764
    1DIPC   C1A20105  10.743  26.194   3.643  0.3257  0.1039 -0.1481
    1DIPC   D2A20106  10.601  25.940   3.885 -0.1955 -0.1744 -0.0828
    1DIPC   D3A20107  10.575  25.497   3.845 -0.1709 -0.2214 -0.3232
    1DIPC   C4A20108  10.261  25.239   3.679  0.1478 -0.0011 -0.1130
    1DIPC   C1B20109  10.618  26.392   4.089 -0.1675 -0.1363 -0.1116
    1DIPC   D2B20110  10.222  26.271   4.295 -0.0299 -0.2115 -0.1415
    1DIPC   D3B20111  10.200  26.079   4.701 -0.1375 -0.0508  0.3877
    1DIPC   C4B20112  10.111  26.381   5.079  0.0331  0.2580 -0.0304
    1DIPC   NC320113  25.100  20.277   3.237 -0.2203 -0.3122  0.0078
    1DIPC   PO420114  24.855  19.899   3.212  0.1032 -0.3289 -0.4313
    1DIPC   GL120115  24.963  19.922   3.585  0.0147  0.3047  0.2198
    1DIPC   GL220116  25.072  20.356   3.742 -0.2521 -0.0201 -0.1604
    1DIPC   C1A20117  25.172  19.850   3.951  0.2512  0.2185  0.3685
    1DIPC   D2A20118  25.077  19.626   4.245 -0.4151 -0.1049 -0.2585
    1DIPC   D3A20119  24.776  19.893   4.649  0.0743  0.2654 -0.0446
    1DIPC   C4A20120  24.876  20.254   4.847 -0.2571 -0.0006  0.0382
    1DIPC   C1B20121  25.031  20.587   4.162  0.0052  0.2710 -0.0331
    1DIPC   D2B20122  25.113  20.678   4.487  0.2682 -0.1889  0.2384
    1DIPC   D3B20123  25.388  21.018   4.413  0.1197  0.0179  0.3600
    1DIPC   C4B20124  25.699  21.094   4.677  0.1672  0.3484 -0.0852
    1DIPC   NC320125   5.542  22.527   2.561 -0.1182 -0.2084 -0.0464
    1DIPC   PO420126   5.689  22.987   2.535  0.1942 -0.1721  0.0847
    1DIPC   GL120127   5.889  22.889   2.913  0.1244 -0.0998 -0.1830
    1DIPC   GL220128   5.729  23.084   3.143 -0.3299 -0.1375  0.0757
    1DIPC   C1A20129   6.071  22.585   3.274  0.2121  0.0746  0.2372
    1DIPC   D2A20130   6.103  22.361   3.719  0.4596 -0.2015  0.5072
    1DIPC   D3A20131   6.309  22.787   3.704 -0.0737 -0.1446  0.0043
    1DIPC   C4A20132   6.168  23.034   3.340  0.3677 -0.1606  0.2186
    1DIPC   C1B20133   5.784  22.920   3.616 -0.1468  0.2122  0.1171
    1DIPC   D2B20134   5.582  22.518   3.735  0.0489  0.0924 -0.0841
    1DIPC   D3B20135   5.347  22.124   3.804  0.2633  0.0029 -0.1487
    1DIPC   C4B20136   4.918  22.025   3.924 -0.2142 -0.3089 -0.0732
    1DIPC   NC320137  23.887  15.976   1.947 -0.2865 -0.1037 -0.0425
    1DIPC   PO420138  24.039  15.737   2.306 -0.2021 -0.2323  0.0165
    1DIPC   GL120139  24.217  16.002   2.685  0.4044 -0.1138 -0.1242
    1DIPC   GL220140  24.068  15.916   2.910  0.1306 -0.0856 -0.3061
    1DIPC   C1A20141  24.552  16.224   2.960 -0.0304  0.0785 -0.3189
    1DIPC   D2A20142  24.453  16.194   3.382 -0.0174 -0.1040  0.1538
    1DIPC   D3A20143  24.188  16.329   3.693  0.3142  0.2172 -0.0393
    1DIPC   C4A20144  24.068  16.499   4.118 -0.0103 -0.0904  0.1055
    1DIPC   C1B20145  24.041  15.922   3.379 -0.0837  0.0076 -0.2763
    1DIPC   D2B20146  23.886  15.972   3.684  0.1082  0.1028  0.2117
    1DIPC   D3B20147  24.158  15.896   3.926  0.1267 -0.1393  0.2920
    1DIPC   C4B20148  24.501  16.287   4.104 -0.1270  0.3343 -0.0234
    1DIPC   NC320149  27.619   7.231   2.197  0.1658 -0.0773  0.0570
    1DIPC   PO420150  28.037   7.101   2.476 -0.4176 -0.0391  0.2716
    1DIPC   GL120151  27.635   7.017   2.687  0.1862  0.2744  0.0900
    1DIPC   GL220152  27.579   6.852   3.006  0.0561 -0.1597  0.1177
    1DIPC   C1A20153  27.167   7.191   2.713 -0.3856 -0.1730 -0.0554
    1DIPC   D2A20154  26.793   7.070   2.888 -0.0615  0.0795  0.2370
    1DIPC   D3A20155  26.804   7.529   2.900  0.1274 -0.3695  0.1041
    1DIPC   C4A20156  26.835   7.610   3.385 -0.1157  0.5370  0.0128
    1DIPC   C1B20157  27.523   6.916   3.298 -0.0746 -0.0615 -0.0243
    1DIPC   D2B20158  27.189   6.786   3.553 -0.1552 -0.1984  0.0011
    1DIPC   D3B20159  27.087   6.735   3.111  0.2114 -0.0326  0.1032
    1DIPC   C4B20160  27.324   6.385   3.021 -0.4424  0.0342 -0.0265
    1DIPC   NC320161  24.985   0.770   2.339  0.0121  0.1818 -0.0619
    1DIPC   PO420162  25.373   0.781   2.664 -0.1003  0.0421 -0.0765
    1DIPC   GL120163  25.539   0.905   3.116  0.3048  0.1085  0.0548
    1DIPC   GL220164  25.175   0.906   3.248 -0.0518 -0.2226  0.0315
    1DIPC   C1A20165  25.477   1.180   3.523  0.0825 -0.3123  0.2298
    1DIPC   D2A20166  25.396   1.591   3.700  0.2669 -0.1914 -0.0477
    1DIPC   D3A20167  25.639   1.734   3.859 -0.0820 -0.0337  0.3133
    1DIPC   C4A20168  26.033   1.740   3.663 -0.0009 -0.2122  0.0809
    1DIPC   C1B20169  24.955   0.573   3.399  0.0466 -0.0057  0.1180
    1DIPC   D2B20170  24.698   0.263   3.564 -0.1599 -0.1107 -0.1172
    1DIPC   D3B20171  24.627   0.078   3.931 -0.1393  0.1419 -0.2324
    1DIPC   C4B20172  24.472   0.099   4.319 -0.1807  0.1663 -0.0784
    1DIPC   NC320173  16.791  28.116   2.939 -0.2367  0.1454  0.0236
    1DIPC   PO420174  16.927  28.114   3.392 -0.2915 -0.0757  0.1246
    1DIPC   GL120175  16.737  28.199   3.808  0.1164 -0.0856  0.0750
    1DIPC   GL220176  16.945  28.360   4.118  0.2193 -0.1880  0.1177
    1DIPC   C1A20177  16.576  27.957   4.174 -0.0636  0.0464  0.2733
    1DIPC   D2A20178  16.501  27.582   4.426  0.0822 -0.1360 -0.0091
    1DIPC   D3A20179  16.761  27.821   4.690 -0.3305 -0.1585 -0.0151
    1DIPC   C4A20180  16.968  27.643   4.948 -0.0062 -0.0377 -0.0519
    1DIPC   C1B20181  17.300  28.362   4.312 -0.1762 -0.1572 -0.1337
    1DIPC   D2B20182  17.495  28.312   4.791  0.0712 -0.2983 -0.1898
    1DIPC   D3B20183  17.869  28.628   4.651  0.2741  0.2010 -0.0499
    1DIPC   C4B20184  17.966  28.992   4.485 -0.2218  0.1527 -0.3025
    1DIPC   NC320185   7.392  13.791   2.596  0.0954 -0.0237 -0.2006
    1DIPC   PO420186   7.567  14.232   2.465  0.0539 -0.0678  0.1980
    1DIPC   GL120187   7.438  14.371   2.789 -0.2767 -0.0646 -0.1790
    1DIPC   GL220188   7.226  14.134   2.949  0.1916 -0.0501  0.1468
    1DIPC   C1A20189   7.530  14.432   3.215 -0.3312  0.1067 -0.1628
    1DIPC   D2A20190   7.815  14.535   3.500 -0.2093 -0.0456 -0.2085
    1DIPC   D3A20191   8.015  14.168   3.254  0.0580  0.0834  0.1107
    1DIPC   C4A20192   8.011  13.700   3.180  0.3027  0.0227 -0.0195
    1DIPC   C1B20193   7.073  14.178   3.309 -0.1957 -0.1033 -0.0396
    1DIPC   D2B20194   7.150  14.476   3.766 -0.2955 -0.1582  0.3735
    1DIPC   D3B20195   6.889  14.521   4.139  0.1671  0.2398  0.2651
    1DIPC   C4B20196   6.813  14.298   4.406  0.0101 -0.2376 -0.0710
    1DIPC   NC320197  27.072  13.806   2.228 -0.0043  0.2368 -0.2215
    1DIPC   PO420198  26.997  14.173   2.366  0.3180  0.0158  0.2795
    1DIPC   GL120199  27.017  14.007   2.801  0.2491  0.0900  0.2086
    1DIPC   GL220200  26.733  14.100   2.951  0.3914 -0.0325  0.1769
    1DIPC   C1A20201  27.365  13.881   3.128  0.2962  0.2201  0.1743
    1DIPC   D2A20202  27.510  13.745   3.518  0.2901 -0.1472 -0.0401
    1DIPC   D3A20203  27.875  13.732   3.739 -0.2728  0.0040  0.0079
    1DIPC   C4A20204  27.928  13.353   3.808  0.0665 -0.0697 -0.0506
    1DIPC   C1B20205  26.883  14.156   3.402 -0.1985 -0.3883 -0.0179
    1DIPC   D2B20206  27.000  14.201   3.841 -0.2602  0.1695  0.2650
    1DIPC   D3B20207  27.074  14.600   3.691 -0.1229  0.0058 -0.1785
    1DIPC   C4B20208  27.312  14.921   3.999  0.1618  0.1428  0.0142
    1DIPC   NC320209  25.541  12.690   2.064  0.1044 -0.2791  0.0351
    1DIPC   PO420210  25.111  12.575   1.865 -0.1686  0.0265  0.0480
    1DIPC   GL120211  25.032  12.771   2.221 -0.0027 -0.5612  0.2222
    1DIPC   GL220212  24.689  12.703   2.107  0.0482 -0.1211  0.0269
    1DIPC   C1A20213  24.851  13.224   2.219 -0.0285  0.0869 -0.0631
    1DIPC   D2A20214  24.757  13.642   2.429 -0.2567 -0.2061 -0.0210
    1DIPC   D3A20215  24.495  13.273   2.584 -0.0562 -0.0724  0.1939
    1DIPC   C4A20216  24.601  12.888   2.603 -0.0210  0.3317  0.1207
    1DIPC   C1B20217  24.858  12.406   2.499  0.1760 -0.3200 -0.0653
    1DIPC   D2B20218  24.889  12.029   2.617 -0.1931  0.1465  0.0034
    1DIPC   D3B20219  25.060  12.270   3.006  0.0543  0.0877  0.1610
    1DIPC   C4B20220  25.186  12.789   3.089  0.1189 -0.1492 -0.0876
    1DIPC   NC320221  17.128   7.148   3.120  0.1255 -0.1055  0.0957
    1DIPC   PO420222  17.386   7.067   3.526 -0.1832 -0.0171  0.0078
    1DIPC   GL120223  17.425   7.204   3.935 -0.2009 -0.2453 -0.0786
    1DIPC   GL220224  17.594   7.020   4.129  0.1076 -0.0963 -0.0217
    1DIPC   C1A20225  17.678   7.453   4.364 -0.1106  0.0483 -0.1127
    1DIPC   D2A20226  17.504   7.839   4.521  0.1133  0.0326  0.1646
    1DIPC   D3A20227  17.926   7.851   4.735 -0.0114  0.0515  0.1263
    1DIPC   C4A20228  18.111   8.161   5.046  0.2561 -0.0285 -0.0135
    1DIPC   C1B20229  17.616   6.743   4.581 -0.1643 -0.0773 -0.2944
    1DIPC   D2B20230  17.797   6.289   4.674 -0.3452 -0.0790  0.0007
    1DIPC   D3B20231  17.564   6.487   5.036 -0.1280  0.0282 -0.3378
    1DIPC   C4B20232  17.363   6.246   5.242 -0.0230  0.1564  0.0322
    1DIPC   NC320233  25.617   0.371   2.979 -0.2769 -0.2400  0.2044
    1DIPC   PO420234  25.938   0.206   3.241 -0.0596  0.3533  0.1097
    1DIPC   GL120235  25.545   0.354   3.466 -0.0619 -0.2928  0.0142
    1DIPC   GL220236  25.628   0.612   3.615 -0.0224  0.2144 -0.0986
    1DIPC   C1A20237  25.162   0.222   3.806 -0.2671 -0.1097  0.2204
    1DIPC   D2A20238  25.169  -0.124   4.062 -0.0143 -0.0220 -0.1618
    1DIPC   D3A20239  24.975   0.171   4.344  0.2962  0.0418 -0.4100
    1DIPC   C4A20240  25.048   0.585   4.346  0.1871  0.0188  0.0994
    1DIPC   C1B20241  25.614   0.855   3.942 -0.1324  0.0176  0.0873
    1DIPC   D2B20242  25.296   1.162   3.991  0.0699 -0.5167 -0.2886
    1DIPC   D3B20243  25.458   1.110   4.430 -0.2096  0.0491 -0.0950
    1DIPC   C4B20244  25.670   0.732   4.456  0.1167 -0.1917 -0.2016
    1DIPC   NC320245  12.208  28.152   3.836 -0.0580  0.0346  0.1158
    1DIPC   PO420246  12.002  27.778   4.001 -0.1015  0.1113 -0.2401
    1DIPC   GL120247  11.979  27.844   4.446  0.0803  0.4055 -0.3811
    1DIPC   GL220248  11.899  28.129   4.686 -0.2526  0.0747 -0.1732
    1DIPC   C1A20249  11.822  27.617   4.757 -0.0498 -0.4557  0.0604
    1DIPC   D2A20250  11.743  27.544   5.093  0.0096  0.1597  0.1299
    1DIPC   D3A20251  12.031  27.903   5.361  0.1836 -0.0714 -0.1714
    1DIPC   C4A20252  11.821  27.890   5.833 -0.1899 -0.3268 -0.1990
    1DIPC   C1B20253  11.676  28.017   5.062  0.2226  0.2171  0.0159
    1DIPC   D2B20254  11.392  27.739   5.367 -0.0692 -0.0844 -0.3811
    1DIPC   D3B20255  11.324  27.324   5.504  0.1313  0.1376  0.1749
    1DIPC   C4B20256  11.306  27.278   5.990 -0.1521 -0.2761 -0.0794
    1DIPC   NC320257  14.514  27.360   4.309  0.0452  0.0291 -0.4208
    1DIPC   PO420258  14.173  27.029   4.066 -0.0882  0.0783 -0.0431
    1DIPC   GL120259  14.236  26.764   4.446 -0.1405 -0.1659  0.1107
    1DIPC   GL220260  14.213  26.431   4.238 -0.1471 -0.0842  0.1011
    1DIPC   C1A20261  14.166  26.539   4.804 -0.0842 -0.3878  0.0787
    1DIPC   D2A20262  14.514  26.325   5.104  0.1843 -0.0098  0.0094
    1DIPC   D3A20263  14.268  26.101   5.428  0.0476  0.0659 -0.1484
    1DIPC   C4A20264  13.903  25.934   5.382 -0.1557 -0.1060  0.2844
    1DIPC   C1B20265  14.474  26.196   4.489 -0.0242 -0.4290 -0.1066
    1DIPC   D2B20266  14.879  26.273   4.649 -0.1947 -0.2370  0.0677
    1DIPC   D3B20267  15.109  25.959   4.558 -0.1351 -0.1377 -0.4165
    1DIPC   C4B20268  15.250  25.656   4.724  0.3057  0.0632  0.0241
    1DIPC   NC320269  10.568  24.121   2.196  0.4134  0.3045  0.4432
    1DIPC   PO420270  10.202  24.138   2.372 -0.2832  0.2609 -0.2062
    1DIPC   GL120271  10.012  23.761   2.567 -0.2131  0.1656  0.1018
    1DIPC   GL220272  10.140  23.439   2.700 -0.1182 -0.1115 -0.2394
    1DIPC   C1A20273   9.736  23.626   3.087 -0.2013  0.2001 -0.3844
    1DIPC   D2A20274   9.956  23.462   3.486 -0.0317 -0.0487 -0.0159
    1DIPC   D3A20275   9.791  23.285   3.859  0.0585 -0.1893 -0.1735
    1DIPC   C4A20276   9.357  23.038   3.876 -0.0638 -0.0228 -0.2463
    1DIPC   C1B20277  10.393  23.346   3.054 -0.0349  0.0073 -0.1450
    1DIPC   D2B20278  10.353  23.165   3.335 -0.2146  0.2758  0.1844
    1DIPC   D3B20279  10.280  23.244   3.783  0.2525  0.2454 -0.1746
    1DIPC   C4B20280  10.515  23.245   4.046 -0.0016 -0.0994  0.2193
    1DIPC   NC320281   9.031  24.766   1.690 -0.1347  0.2484  0.3705
    1DIPC   PO420282   9.363  24.533   1.950  0.1091 -0.3451 -0.0433
    1DIPC   GL120283   9.431  24.451   2.354 -0.0998  0.1985  0.1339
    1DIPC   GL220284   9.409  24.724   2.543 -0.0903  0.0968  0.0360
    1DIPC   C1A20285   9.574  24.163   2.664  0.1930 -0.1234  0.2486
    1DIPC   D2A20286  10.059  24.161   2.887 -0.0359  0.1118 -0.0581
    1DIPC   D3A20287  10.351  23.856   2.920 -0.2609 -0.2283  0.0547
    1DIPC   C4A20288  10.361  23.737   3.399  0.0828  0.4588  0.0490
    1DIPC   C1B20289   9.357  24.614   2.995 -0.0813 -0.4069 -0.2860
    1DIPC   D2B20290   9.323  24.135   3.186  0.5414 -0.5738  0.2668
    1DIPC   D3B20291   9.343  24.095   3.644  0.1810  0.2762  0.1663
    1DIPC   C4B20292   9.107  24.104   3.956 -0.1269  0.0597 -0.1856
    1DIPC   NC320293  22.572   7.533   2.659 -0.0109  0.0250 -0.1314
    1DIPC   PO420294  22.741   7.874   2.892 -0.2029 -0.5025 -0.0433
    1DIPC   GL120295  23.154   7.982   3.203  0.2328  0.0867  0.2053
    1DIPC   GL220296  23.313   7.695   3.420 -0.0751 -0.0136 -0.1269
    1DIPC   C1A20297  23.165   8.186   3.649  0.1861 -0.1733  0.3902
    1DIPC   D2A20298  23.278   8.531   3.992 -0.1087 -0.2586 -0.0284
    1DIPC   D3A20299  23.286   9.008   4.107  0.0553  0.1890  0.0219
    1DIPC   C4A20300  23.535   9.118   4.546 -0.0423  0.0973 -0.1834
    1DIPC   C1B20301  23.159   7.603   3.774  0.2152  0.1801  0.0013
    1DIPC   D2B20302  22.956   7.496   4.219 -0.0442  0.0431 -0.0651
    1DIPC   D3B20303  22.999   8.032   4.338 -0.0369  0.6250  0.0447
    1DIPC   C4B20304  22.723   8.212   4.658  0.0146 -0.0280 -0.3365
    1DIPC   NC320305  24.322  13.598   2.025  0.0530 -0.1350  0.0439
    1DIPC   PO420306  24.125  13.119   2.157 -0.4055 -0.1013  0.1775
    1DIPC   GL120307  24.048  12.956   2.573  0.1697  0.1136  0.1497
    1DIPC   GL220308  23.709  13.029   2.647  0.1057 -0.0615 -0.0403
    1DIPC   C1A20309  24.037  12.605   2.845 -0.1371  0.1556 -0.1815
    1DIPC   D2A20310  23.865  12.427   3.170 -0.1502 -0.1232  0.3131
    1DIPC   D3A20311  24.227  12.772   3.336 -0.0439 -0.0008  0.0325
    1DIPC   C4A20312  24.418  12.803   3.726 -0.2889 -0.0919  0.1797
    1DIPC   C1B20313  23.764  12.980   3.060  0.1290 -0.2573 -0.2083
    1DIPC   D2B20314  23.684  13.035   3.527  0.1132  0.1010  0.0929
    1DIPC   D3B20315  24.091  13.210   3.606  0.1645 -0.2208  0.0265
    1DIPC   C4B20316  24.244  13.209   3.109  0.2660 -0.0699  0.0869
    1DIPC   NC320317   4.178   7.195   2.463  0.0750 -0.3609  0.2858
    1DIPC   PO420318   4.437   7.392   2.716  0.2104 -0.0252  0.2646
    1DIPC   GL120319   4.226   7.496   3.044  0.0968  0.0809  0.0772
    1DIPC   GL220320   4.166   7.893   3.073  0.0027 -0.0693  0.2588
    1DIPC   C1A20321   4.067   7.538   3.485  0.1670  0.1493  0.2663
    1DIPC   D2A20322   3.681   7.674   3.701 -0.0062 -0.0828  0.2008
    1DIPC   D3A20323   4.011   7.784   4.010 -0.1734 -0.1674 -0.0925
    1DIPC   C4A20324   4.050   7.983   4.352 -0.0907 -0.0509 -0.2072
    1DIPC   C1B20325   4.199   8.027   3.479 -0.2367 -0.3357 -0.1568
    1DIPC   D2B20326   4.444   8.148   3.904  0.3152  0.1029  0.0653
    1DIPC   D3B20327   4.786   8.053   3.730 -0.3142 -0.0991  0.1749
    1DIPC   C4B20328   5.101   8.291   3.603  0.0936  0.1702  0.3492
    1DIPC   NC320329  28.575   7.541   1.923  0.0358  0.0244  0.0345
    1DIPC   PO420330  28.498   7.721   2.346  0.0509 -0.0602  0.0042
    1DIPC   GL120331  28.339   7.483   2.756 -0.1081  0.1747 -0.0518
    1DIPC   GL220332  28.004   7.481   2.835  0.2772 -0.1278 -0.1634
    1DIPC   C1A20333  28.185   7.650   3.242 -0.4218 -0.3677  0.0078
    1DIPC   D2A20334  27.827   7.816   3.506 -0.2700 -0.0002 -0.2413
    1DIPC   D3A20335  27.961   7.696   3.970  0.2593  0.1326 -0.0958
    1DIPC   C4A20336  28.122   8.122   4.099 -0.0714 -0.3795 -0.0903
    1DIPC   C1B20337  27.711   7.341   3.137 -0.1788 -0.2331  0.1185
    1DIPC   D2B20338  27.804   7.320   3.653  0.3123 -0.0740  0.2769
    1DIPC   D3B20339  27.580   7.042   3.987 -0.1824 -0.3121  0.1326
    1DIPC   C4B20340  27.255   7.272   4.196 -0.0669  0.0670 -0.0261
    1DIPC   NC320341  24.505   8.064   2.211  0.0336  0.0406 -0.0116
    1DIPC   PO420342  24.394   8.346   2.593  0.0785  0.0371 -0.1114
    1DIPC   GL120343  24.205   8.237   2.974  0.0271  0.2097 -0.3647
    1DIPC   GL220344  24.075   8.393   3.275  0.2029 -0.0589  0.2132
    1DIPC   C1A20345  24.383   7.995   3.346  0.0128  0.0137 -0.1749
    1DIPC   D2A20346  24.592   7.888   3.741 -0.2385  0.1820 -0.0028
    1DIPC   D3A20347  24.571   7.423   3.915  0.0841 -0.1684  0.1919
    1DIPC   C4A20348  24.847   7.140   3.580  0.2822 -0.0016  0.0108
    1DIPC   C1B20349  24.140   8.324   3.626 -0.0308 -0.2502  0.3903
    1DIPC   D2B20350  24.143   8.391   4.063 -0.1762 -0.4010 -0.1006
    1DIPC   D3B20351  24.476   8.617   4.289  0.3389  0.1612  0.0116
    1DIPC   C4B20352  24.455   9.044   4.564  0.1085 -0.0521  0.1849
    1DIPC   NC320353  19.087  25.288   3.113 -0.0306  0.0312  0.0299
    1DIPC   PO420354  18.738  24.908   3.099 -0.2081  0.0653  0.0962
    1DIPC   GL120355  18.807  25.147   3.517 -0.1338 -0.2943 -0.1356
    1DIPC   GL220356  18.895  25.004   3.835 -0.2002  0.1898 -0.1331
    1DIPC   C1A20357  18.580  25.368   3.735  0.0943  0.0474 -0.0532
    1DIPC   D2A20358  18.352  25.459   4.148 -0.3184 -0.1547 -0.0882
    1DIPC   D3A20359  18.488  25.472   4.530 -0.0187  0.1640 -0.1344
    1DIPC   C4A20360  18.471  25.819   4.984 -0.1175 -0.1446 -0.0654
    1DIPC   C1B20361  18.683  25.063   4.254 -0.2909 -0.3206  0.0316
    1DIPC   D2B20362  18.750  25.020   4.747 -0.2102  0.1039 -0.0179
    1DIPC   D3B20363  18.342  25.071   4.912  0.2205 -0.1015  0.1665
    1DIPC   C4B20364  18.122  25.487   4.954 -0.0375 -0.0968 -0.1133
    1DIPC   NC320365   4.638  22.270   2.517 -0.6801 -0.1309 -0.2068
    1DIPC   PO420366   4.885  22.731   2.669  0.1102  0.1742  0.1592
    1DIPC   GL120367   4.477  22.771   2.942 -0.0092  0.4350 -0.0302
    1DIPC   GL220368   4.084  22.779   2.833  0.1044 -0.1533  0.2713
    1DIPC   C1A20369   4.253  22.625   3.331  0.1541  0.1872 -0.2399
    1DIPC   D2A20370   4.327  22.449   3.745  0.0386  0.0193  0.1948
    1DIPC   D3A20371   4.688  22.347   3.500 -0.4303  0.3206 -0.0407
    1DIPC   C4A20372   5.093  22.551   3.657  0.2776  0.0569 -0.0176
    1DIPC   C1B20373   3.891  22.994   3.214 -0.0577  0.0312 -0.0561
    1DIPC   D2B20374   4.292  23.164   3.508 -0.1234  0.4037  0.0866
    1DIPC   D3B20375   4.047  22.862   3.673  0.1068 -0.0537 -0.0059
    1DIPC   C4B20376   3.874  22.899   4.062  0.0138  0.5556 -0.1288
    1DIPC   NC320377   3.408  25.996   3.032  0.0402  0.1961  0.2244
    1DIPC   PO420378   2.991  25.983   3.029  0.3027  0.0474 -0.0691
    1DIPC   GL120379   2.909  25.928   3.367  0.3477 -0.3841 -0.0883
    1DIPC   GL220380   3.283  25.768   3.425  0.0197 -0.0116  0.1922
    1DIPC   C1A20381   2.635  26.038   3.720 -0.1425  0.0736  0.0543
    1DIPC   D2A20382   2.437  25.973   4.208 -0.2843  0.3692 -0.0672
    1DIPC   D3A20383   2.574  26.035   4.587 -0.0799  0.2316 -0.3036
    1DIPC   C4A20384   2.864  25.600   4.644 -0.1708  0.0167 -0.0553
    1DIPC   C1B20385   2.974  25.667   3.740 -0.0722 -0.1367  0.0791
    1DIPC   D2B20386   2.603  25.525   3.894 -0.2037  0.0720 -0.1345
    1DIPC   D3B20387   2.878  25.384   4.180  0.0799 -0.0693 -0.5164
    1DIPC   C4B20388   3.096  25.085   4.047  0.1288 -0.3049 -0.0828
    1DIPC   NC320389  24.768  23.013   3.533  0.0484  0.1272 -0.0833
    1DIPC   PO420390  24.496  23.215   3.529 -0.1985 -0.3097  0.0514
    1DIPC   GL120391  24.619  23.470   3.844 -0.2778 -0.0408 -0.4187
    1DIPC   GL220392  24.402  23.736   3.952 -0.1285  0.0652 -0.0731
    1DIPC   C1A20393  24.941  23.776   4.010  0.1582 -0.0845  0.1095
    1DIPC   D2A20394  25.098  23.943   4.207  0.1941 -0.2258  0.3195
    1DIPC   D3A20395  25.086  23.767   4.618  0.4220  0.0403 -0.0559
    1DIPC   C4A20396  25.318  23.486   4.808  0.3126  0.0206  0.0678
    1DIPC   C1B20397  24.629  24.152   3.957 -0.1749  0.0554 -0.0047
    1DIPC   D2B20398  24.966  24.306   3.877 -0.3332 -0.0262 -0.1678
    1DIPC   D3B20399  24.638  24.446   3.517  0.1914  0.2595 -0.1707
    1DIPC   C4B20400  24.638  24.876   3.467  0.2051  0.3059  0.0891
    1DIPC   NC320401   3.739  20.280   1.802  0.0524 -0.2861  0.0699
    1DIPC   PO420402   3.853  20.246   2.337  0.1154 -0.0209 -0.1437
    1DIPC   GL120403   3.852  20.044   2.699  0.1945  0.1394 -0.0839
    1DIPC   GL220404   3.677  19.992   3.009  0.2528  0.0178 -0.2584
    1DIPC   C1A20405   4.199  19.737   2.944  0.0688  0.1629  0.1331
    1DIPC   D2A20406   4.600  19.893   3.127  0.1177 -0.3697  0.1423
    1DIPC   D3A20407   4.569  20.148   3.441 -0.0809 -0.1137  0.0989
    1DIPC   C4A20408   4.319  20.517   3.399 -0.1040  0.1463  0.3088
    1DIPC   C1B20409   3.824  20.412   3.277  0.0322 -0.1524  0.1899
    1DIPC   D2B20410   3.910  20.695   3.618  0.2287 -0.0155 -0.2497
    1DIPC   D3B20411   3.487  20.833   3.700 -0.0139  0.1780  0.0624
    1DIPC   C4B20412   3.501  21.269   3.965  0.0482  0.0996 -0.1909
    1DIPC   NC320413   2.144  25.506   3.097 -0.1400 -0.0932  0.2290
    1DIPC   PO420414   2.056  25.027   3.031  0.1120  0.2886  0.4079
    1DIPC   GL120415   2.078  25.123   3.380 -0.2566 -0.2002 -0.2216
    1DIPC   GL220416   2.238  25.256   3.590 -0.1872 -0.2012  0.1412
    1DIPC   C1A20417   2.034  24.868   3.821  0.1901 -0.1712  0.0532
    1DIPC   D2A20418   2.131  24.587   4.118 -0.2008 -0.1887 -0.1093
    1DIPC   D3A20419   2.079  24.227   4.278  0.3164 -0.1181 -0.1698
    1DIPC   C4A20420   1.897  23.806   4.021  0.1506 -0.1138 -0.2339
    1DIPC   C1B20421   2.100  25.404   3.944 -0.0121  0.0967  0.1009
    1DIPC   D2B20422   2.047  25.092   4.238  0.3424  0.2024 -0.1753
    1DIPC   D3B20423   1.701  25.067   4.533  0.2703 -0.1692 -0.1227
    1DIPC   C4B20424   1.441  25.326   4.779  0.0496 -0.1434 -0.3692
    1DIPC   NC320425  13.231  29.286   3.896 -0.2572  0.0174  0.3671
    1DIPC   PO420426  13.085  29.017   4.202 -0.1122 -0.0960 -0.1145
    1DIPC   GL120427  13.107  28.996   4.643  0.1060  0.0715 -0.5045
    1DIPC   GL220428  13.126  29.244   4.767  0.0432  0.0718 -0.3002
    1DIPC   C1A20429  12.902  28.880   5.022 -0.0035  0.0572  0.0537
    1DIPC   D2A20430  12.901  28.892   5.440 -0.4646 -0.0318 -0.1965
    1DIPC   D3A20431  13.168  28.726   5.731  0.1114  0.1343  0.1472
    1DIPC   C4A20432  13.226  28.320   5.849 -0.1036  0.1743  0.0286
    1DIPC   C1B20433  13.537  29.350   4.955 -0.0074  0.0853 -0.3001
    1DIPC   D2B20434  13.950  29.416   5.053 -0.1692  0.0206  0.0038
    1DIPC   D3B20435  13.834  29.513   5.359  0.1385  0.1969 -0.2516
    1DIPC   C4B20436  13.384  29.527   5.464 -0.0574  0.0616  0.1193
    1DIPC   NC320437  15.548   1.134   2.749 -0.2507 -0.1180  0.2771
    1DIPC   PO420438  15.776   1.286   3.146  0.3166  0.0990  0.3863
    1DIPC   GL120439  15.663   1.158   3.575  0.3420 -0.0453 -0.0241
    1DIPC   GL220440  15.918   1.032   3.759 -0.0663 -0.0724  0.1536
    1DIPC   C1A20441  15.371   1.469   3.915  0.2483  0.2784  0.1220
    1DIPC   D2A20442  15.079   1.724   4.081  0.2398 -0.0043 -0.2848
    1DIPC   D3A20443  15.030   1.484   4.500  0.2136 -0.5625 -0.2843
    1DIPC   C4A20444  14.884   0.961   4.439  0.3207  0.1671 -0.1106
    1DIPC   C1B20445  15.899   0.913   4.194  0.0110 -0.0081 -0.0596
    1DIPC   D2B20446  15.803   0.461   4.382 -0.2086 -0.0801  0.3497
    1DIPC   D3B20447  15.849   0.116   4.502  0.1610  0.2169 -0.2996
    1DIPC   C4B20448  16.050   0.057   4.938 -0.1594  0.0435  0.2453
    1DIPC   NC320449   7.650   4.232   3.343 -0.1100 -0.2919 -0.0829
    1DIPC   PO420450   7.675   3.904   2.956 -0.1143  0.1438  0.3307
    1DIPC   GL120451   7.686   3.694   3.322 -0.1290  0.0761 -0.1435
    1DIPC   GL220452   7.338   3.844   3.433  0.0536 -0.1472 -0.0214
    1DIPC   C1A20453   7.611   3.459   3.733  0.0560 -0.2138  0.2228
    1DIPC   D2A20454   7.673   3.332   4.181  0.1054 -0.1445 -0.2098
    1DIPC   D3A20455   7.920   3.575   4.427  0.0610 -0.0158 -0.2248
    1DIPC   C4A20456   7.901   3.980   4.303 -0.0334 -0.1980  0.1703
    1DIPC   C1B20457   7.351   3.926   3.871  0.0172 -0.3042  0.0355
    1DIPC   D2B20458   7.396   3.770   4.293  0.0146  0.0912 -0.0934
    1DIPC   D3B20459   7.450   3.447   4.564  0.1839  0.0877  0.1183
    1DIPC   C4B20460   7.725   3.212   4.822 -0.0376  0.1588  0.0144
    1DIPC   NC320461  26.446   6.954   2.163 -0.2573  0.1465 -0.3681
    1DIPC   PO420462  26.068   6.981   2.238 -0.1334  0.2895  0.2487
    1DIPC   GL120463  25.922   7.294   2.511  0.1550  0.0587  0.1836
    1DIPC   GL220464  25.911   6.968   2.741 -0.2906 -0.0380  0.0737
    1DIPC   C1A20465  26.031   7.440   2.891  0.0313 -0.2655  0.2735
    1DIPC   D2A20466  26.385   7.349   3.110  0.2069  0.3715 -0.1560
    1DIPC   D3A20467  26.333   7.394   3.645 -0.0844  0.0700  0.1576
    1DIPC   C4A20468  26.505   7.768   3.866  0.0543  0.3341  0.0262
    1DIPC   C1B20469  26.229   6.884   2.902  0.2423 -0.0209 -0.0156
    1DIPC   D2B20470  26.523   6.809   3.162 -0.2257 -0.1208  0.2689
    1DIPC   D3B20471  26.717   7.078   3.480 -0.0050 -0.5699 -0.1108
    1DIPC   C4B20472  26.819   6.912   3.871  0.2580  0.0185 -0.2254
    1DIPC   NC320473  15.705  28.992   3.696 -0.1048  0.2007 -0.4511
    1DIPC   PO420474  15.489  29.318   3.581 -0.3736  0.1918 -0.0912
    1DIPC   GL120475  15.514  29.703   3.897  0.1601  0.1346  0.1378
    1DIPC   GL220476  15.337  29.757   4.204  0.0712 -0.1210  0.0470
    1DIPC   C1A20477  15.466  30.208   3.975 -0.3829  0.3191  0.2392
    1DIPC   D2A20478  15.337  30.402   4.239  0.1474 -0.0165 -0.0954
    1DIPC   D3A20479  15.609  30.344   4.593  0.1152 -0.2606  0.0931
    1DIPC   C4A20480  15.905  30.114   4.827  0.0059 -0.3742  0.2374
    1DIPC   C1B20481  15.332  29.959   4.540  0.0314 -0.2800 -0.0692
    1DIPC   D2B20482  15.451  29.938   4.966 -0.1613 -0.1776 -0.0742
    1DIPC   D3B20483  15.670  29.773   5.231 -0.5664  0.1738 -0.1596
    1DIPC   C4B20484  16.141  29.831   5.288 -0.1576 -0.1677  0.1221
    1DIPC   NC320485   1.188   0.130   3.045  0.2012 -0.1819  0.0462
    1DIPC   PO420486   1.265  -0.418   2.883 -0.0479  0.1078 -0.0108
    1DIPC   GL120487   1.219  -0.274   3.357 -0.2058  0.0544 -0.0855
    1DIPC   GL220488   1.439  -0.235   3.578 -0.0816  0.1156  0.2176
    1DIPC   C1A20489   0.920  -0.270   3.742 -0.0614 -0.1056 -0.4238
    1DIPC   D2A20490   1.057  -0.216   4.163 -0.0146  0.0728 -0.3303
    1DIPC   D3A20491   1.036   0.206   4.335 -0.2465 -0.0889  0.0550
    1DIPC   C4A20492   1.334   0.406   4.623  0.0569 -0.1566  0.1675
    1DIPC   C1B20493   1.576  -0.227   3.976 -0.0613 -0.1996  0.0002
    1DIPC   D2B20494   1.441  -0.443   4.369 -0.0324 -0.0118  0.0513
    1DIPC   D3B20495   1.209  -0.445   4.669  0.5366  0.1429 -0.0651
    1DIPC   C4B20496   1.219  -0.009   4.838  0.2491 -0.3395  0.2069
    1DIPC   NC320497  28.732  20.266   1.908 -0.0131  0.0567 -0.0769
    1DIPC   PO420498  28.611  20.152   2.352  0.0418  0.3230 -0.1116
    1DIPC   GL120499  28.562  20.183   2.702  0.2251  0.1122 -0.0767
    1DIPC   GL220500  28.768  20.324   2.811 -0.2239 -0.0329 -0.2950
    1DIPC   C1A20501  28.310  20.411   3.022  0.0575 -0.1383  0.2014
    1DIPC   D2A20502  28.046  20.097   3.225 -0.1050  0.0039 -0.3172
    1DIPC   D3A20503  28.345  19.784   3.371  0.0900  0.0362  0.0606
    1DIPC   C4A20504  28.572  19.866   3.671 -0.2193 -0.1198  0.1802
    1DIPC   C1B20505  28.695  20.154   3.245  0.3874 -0.0007 -0.0343
    1DIPC   D2B20506  29.036  20.123   3.680 -0.0127 -0.3969 -0.2454
    1DIPC   D3B20507  28.780  20.206   4.008  0.0812  0.0257  0.0335
    1DIPC   C4B20508  29.003  20.309   4.306  0.2928 -0.1080 -0.0720
    1DIPC   NC320509  23.373  12.687   2.311 -0.0706 -0.2923  0.0440
    1DIPC   PO420510  23.157  12.865   2.693 -0.1597  0.0529 -0.0559
    1DIPC   GL120511  23.298  13.159   3.043  0.1337  0.4543 -0.0729
    1DIPC   GL220512  23.348  13.423   2.862 -0.3940  0.0506 -0.1702
    1DIPC   C1A20513  23.191  13.291   3.588 -0.2750  0.1431 -0.2710
    1DIPC   D2A20514  23.488  13.136   4.053 -0.0737  0.0811  0.3429
    1DIPC   D3A20515  23.022  13.207   4.195  0.1179 -0.0520 -0.0346
    1DIPC   C4A20516  22.963  13.019   4.526  0.1341 -0.0738  0.0480
    1DIPC   C1B20517  23.217  13.679   3.218  0.1327 -0.0190 -0.4457
    1DIPC   D2B20518  23.378  13.834   3.604  0.0049 -0.0002  0.1350
    1DIPC   D3B20519  23.776  14.137   3.604  0.2120  0.2123 -0.0539
    1DIPC   C4B20520  23.790  14.612   3.685 -0.4447  0.3615 -0.0039
    1DIPC   NC320521  11.941  23.359   3.188  0.0919 -0.0131  0.3195
    1DIPC   PO420522  12.280  23.604   3.089  0.0719 -0.0595  0.0814
    1DIPC   GL120523  12.332  23.600   3.498 -0.1574  0.1156 -0.2127
    1DIPC   GL220524  12.523  23.735   3.738 -0.2115 -0.0370 -0.0854
    1DIPC   C1A20525  12.110  23.384   3.885 -0.2593  0.2006 -0.3775
    1DIPC   D2A20526  11.768  23.495   3.749  0.0900  0.0259  0.0151
    1DIPC   D3A20527  11.665  23.290   4.130 -0.0611  0.1578  0.0794
    1DIPC   C4A20528  11.545  23.532   4.478 -0.0764 -0.3517  0.0304
    1DIPC   C1B20529  12.415  23.744   4.129 -0.1071 -0.0761  0.3978
    1DIPC   D2B20530  12.601  23.802   4.591 -0.0427  0.1241  0.2717
    1DIPC   D3B20531  12.235  24.046   4.474  0.0161  0.0748 -0.3027
    1DIPC   C4B20532  11.810  23.920   4.637 -0.0160 -0.0610  0.0445
    1DIPC   NC320533  21.683  23.147   3.288  0.1871  0.2143  0.0781
    1DIPC   PO420534  21.490  22.820   3.099 -0.2201  0.0403  0.2081
    1DIPC   GL120535  21.321  22.746   3.540  0.0410 -0.2159 -0.0933
    1DIPC   GL220536  21.314  23.049   3.685  0.0154 -0.3337  0.0758
    1DIPC   C1A20537  21.146  22.585   4.005  0.0974  0.0055  0.3351
    1DIPC   D2A20538  21.124  22.502   4.450  0.0118  0.2375  0.0490
    1DIPC   D3A20539  20.962  22.860   4.564 -0.1815  0.2105  0.0990
    1DIPC   C4A20540  21.274  23.061   4.785 -0.0997 -0.0841  0.2357
    1DIPC   C1B20541  21.124  23.176   4.104 -0.0193 -0.0374 -0.2765
    1DIPC   D2B20542  20.675  23.153   4.254 -0.0124  0.0233  0.1814
    1DIPC   D3B20543  20.915  23.376   4.558 -0.1190 -0.0153  0.1545
    1DIPC   C4B20544  20.769  23.394   5.005 -0.0191  0.0663 -0.1600
    1DIPC   NC320545  14.860  24.692   3.211  0.4555 -0.1218  0.0273
    1DIPC   PO420546  14.482  25.014   3.144 -0.1578 -0.2872 -0.1676
    1DIPC   GL120547  14.681  25.054   3.534  0.1105  0.5546 -0.1574
    1DIPC   GL220548  14.431  25.147   3.704 -0.3069 -0.3007  0.3031
    1DIPC   C1A20549  14.916  24.813   3.837 -0.0045 -0.1839 -0.1014
    1DIPC   D2A20550  15.124  24.777   4.333  0.1360 -0.1315 -0.2857
    1DIPC   D3A20551  15.248  24.952   4.752  0.0142  0.0668  0.1908
    1DIPC   C4A20552  15.571  24.784   4.962 -0.2194 -0.0358  0.0073
    1DIPC   C1B20553  14.414  25.129   4.153  0.0669 -0.0290 -0.1725
    1DIPC   D2B20554  14.063  24.842   4.395 -0.0429  0.1280 -0.1094
    1DIPC   D3B20555  14.202  24.776   4.835  0.2136  0.3941  0.0379
    1DIPC   C4B20556  14.397  25.138   4.993  0.0312 -0.5086  0.0401
    1DIPC   NC320557   2.572  14.480   2.587  0.0051  0.2958  0.0846
    1DIPC   PO420558   2.284  14.147   2.370 -0.0339 -0.3839  0.1994
    1DIPC   GL120559   2.132  13.987   2.843 -0.0957  0.3365  0.3280
    1DIPC   GL220560   2.248  14.281   2.999  0.1117 -0.0816  0.1626
    1DIPC   C1A20561   2.103  13.817   3.214  0.0911 -0.3942 -0.0906
    1DIPC   D2A20562   2.183  13.546   3.548 -0.0852  0.2580 -0.2254
    1DIPC   D3A20563   2.296  13.905   3.778  0.0894 -0.1020 -0.0529
    1DIPC   C4A20564   1.933  14.223   3.534  0.2628 -0.0127  0.1869
    1DIPC   C1B20565   2.107  14.705   3.245  0.2040 -0.1055 -0.1583
    1DIPC   D2B20566   1.780  14.731   3.563  0.0923 -0.0056  0.0999
    1DIPC   D3B20567   1.640  14.606   3.875  0.0492  0.0165 -0.1771
    1DIPC   C4B20568   1.361  14.185   3.814  0.0429 -0.0132 -0.0431
    1DIPC   NC320569  21.218  20.292   3.275 -0.2114  0.1368 -0.0086
    1DIPC   PO420570  21.162  19.850   3.319  0.2364  0.0885 -0.0027
    1DIPC   GL120571  21.237  19.983   3.669  0.2254 -0.1240  0.0182
    1DIPC   GL220572  21.141  20.247   3.877 -0.1374 -0.0080  0.0056
    1DIPC   C1A20573  21.472  19.935   4.015 -0.1799  0.0748 -0.0363
    1DIPC   D2A20574  21.523  20.129   4.377 -0.1534 -0.1548  0.0012
    1DIPC   D3A20575  21.595  20.636   4.342  0.0790 -0.0318 -0.0340
    1DIPC   C4A20576  21.297  20.889   4.527  0.1141  0.1295  0.1934
    1DIPC   C1B20577  21.051  20.392   4.243  0.2111  0.1413 -0.1575
    1DIPC   D2B20578  21.193  20.438   4.655 -0.0799 -0.1341  0.1486
    1DIPC   D3B20579  20.811  20.291   4.743  0.2973  0.0690 -0.1496
    1DIPC   C4B20580  20.810  19.961   5.011 -0.1330  0.2001 -0.1649
    1DIPC   NC320581  29.324  25.169   3.245 -0.2536 -0.3174 -0.0576
    1DIPC   PO420582  29.756  25.325   3.457  0.0760 -0.0740  0.2152
    1DIPC   GL120583  29.659  25.545   3.770 -0.2869 -0.0806  0.1755
    1DIPC   GL220584  29.541  25.834   3.655 -0.1911 -0.1415  0.0754
    1DIPC   C1A20585  29.658  25.636   4.162  0.1749  0.0744 -0.4286
    1DIPC   D2A20586  29.227  25.725   4.226  0.2090 -0.1750 -0.3098
    1DIPC   D3A20587  29.089  25.540   4.599  0.0806 -0.1265 -0.1603
    1DIPC   C4A20588  28.908  25.896   4.812  0.2352  0.1273  0.3089
    1DIPC   C1B20589  29.898  26.005   3.921 -0.2999  0.0031 -0.1894
    1DIPC   D2B20590  29.884  26.411   4.138 -0.2023  0.0736 -0.2168
    1DIPC   D3B20591  30.238  26.502   4.350 -0.3155 -0.0290  0.2190
    1DIPC   C4B20592  30.461  26.105   4.466 -0.1425 -0.2327  0.0215
    1DIPC   NC320593   4.439   1.346   3.304  0.1702 -0.0763  0.0003
    1DIPC   PO420594   4.761   1.533   3.477 -0.3266 -0.0419  0.0157
    1DIPC   GL120595   4.781   1.693   3.910 -0.0070 -0.0519  0.1103
    1DIPC   GL220596   4.593   1.876   3.902  0.0507  0.3451 -0.1043
    1DIPC   C1A20597   4.715   1.873   4.370  0.0919  0.1370  0.1595
    1DIPC   D2A20598   4.906   1.756   4.811 -0.1263 -0.1989  0.0924
    1DIPC   D3A20599   5.138   2.053   5.082  0.2911 -0.0589 -0.3012
    1DIPC   C4A20600   5.548   1.896   5.231 -0.0244  0.0057  0.0026
    1DIPC   C1B20601   4.424   2.194   4.185 -0.2585 -0.2202 -0.0513
    1DIPC   D2B20602   4.402   2.580   4.313 -0.0833 -0.0249 -0.1862
    1DIPC   D3B20603   4.247   2.365   4.741 -0.3667  0.0278  0.2481
    1DIPC   C4B20604   4.262   1.926   4.613  0.1150 -0.3532  0.0947
    1DIPC   NC320605  29.198  20.386   2.030  0.0860  0.1851 -0.3521
    1DIPC   PO420606  28.983  20.543   2.331  0.2061 -0.0207  0.3945
    1DIPC   GL120607  29.258  20.598   2.691  0.1945  0.1796 -0.0763
    1DIPC   GL220608  29.133  20.621   2.991 -0.1224  0.0969  0.1407
    1DIPC   C1A20609  29.446  20.269   3.040  0.0188  0.1211  0.0857
    1DIPC   D2A20610  29.891  20.169   3.212 -0.0756 -0.0759  0.2141
    1DIPC   D3A20611  30.106  19.780   3.179 -0.1426  0.0024  0.2048
    1DIPC   C4A20612  30.336  19.972   3.407  0.2847 -0.1644  0.0264
    1DIPC   C1B20613  29.008  20.670   3.360 -0.3495 -0.1393  0.1569
    1DIPC   D2B20614  28.694  20.546   3.644  0.0238  0.1069  0.2222
    1DIPC   D3B20615  28.453  20.844   3.723  0.0231  0.3407  0.1510
    1DIPC   C4B20616  28.481  21.288   3.606  0.2749 -0.1450  0.0171
    1DIPC   NC320617  18.144  25.830   3.177 -0.0217 -0.1591 -0.2681
    1DIPC   PO420618  17.697  25.737   3.383 -0.1112  0.1946 -0.2532
    1DIPC   GL120619  17.553  25.446   3.592  0.0479  0.1984 -0.1340
    1DIPC   GL220620  17.676  25.155   3.563 -0.1526  0.0915 -0.0033
    1DIPC   C1A20621  17.192  25.504   3.876 -0.3463  0.2025  0.1406
    1DIPC   D2A20622  16.866  25.614   4.124  0.0218 -0.0919  0.0301
    1DIPC   D3A20623  16.829  25.596   4.475 -0.1382  0.0094  0.1541
    1DIPC   C4A20624  17.129  25.488   4.921 -0.0451 -0.1687  0.2755
    1DIPC   C1B20625  17.792  24.686   3.924 -0.2314  0.1076  0.1637
    1DIPC   D2B20626  17.967  24.492   4.204  0.0469  0.1936  0.0942
    1DIPC   D3B20627  18.099  24.502   4.557 -0.2599  0.1725 -0.0343
    1DIPC   C4B20628  18.265  24.572   4.999 -0.1159  0.2290  0.3311
    1DIPC   NC320629   6.503   3.222   2.965 -0.2120 -0.3348 -0.1626
    1DIPC   PO420630   6.078   3.268   2.861 -0.1465 -0.1892 -0.4680
    1DIPC   GL120631   5.906   3.383   3.208  0.0692  0.1084  0.0289
    1DIPC   GL220632   5.626   3.272   3.508  0.2070  0.0101  0.1121
    1DIPC   C1A20633   6.066   3.512   3.566  0.2758  0.1387  0.0683
    1DIPC   D2A20634   6.057   3.680   3.984 -0.0867 -0.1346  0.1427
    1DIPC   D3A20635   5.929   3.635   4.354  0.2896 -0.0547  0.2687
    1DIPC   C4A20636   5.561   3.436   4.542 -0.0149  0.2097 -0.0877
    1DIPC   C1B20637   5.963   3.057   3.708 -0.0974 -0.4902 -0.1414
    1DIPC   D2B20638   6.111   3.104   4.134 -0.2122 -0.3332 -0.1768
    1DIPC   D3B20639   5.864   3.027   4.471 -0.0879  0.1284 -0.4868
    1DIPC   C4B20640   5.587   2.906   4.893  0.1526 -0.0370 -0.2784
    1DIPC   NC320641   5.722  23.845   2.811 -0.1492 -0.3817  0.0322
    1DIPC   PO420642   5.914  23.447   2.836  0.0532  0.3864 -0.0190
    1DIPC   GL120643   5.883  23.688   3.253  0.2132 -0.0567  0.1523
    1DIPC   GL220644   5.976  23.459   3.484  0.2229 -0.1502  0.1339
    1DIPC   C1A20645   5.792  23.955   3.532  0.1129  0.1298  0.0530
    1DIPC   D2A20646   5.841  23.967   3.940 -0.0876  0.2519  0.2074
    1DIPC   D3A20647   6.015  23.933   4.330 -0.1647  0.1007  0.0372
    1DIPC   C4A20648   6.104  24.204   4.690  0.2579  0.1510 -0.0538
    1DIPC   C1B20649   5.760  23.456   3.925 -0.1728 -0.0331  0.0850
    1DIPC   D2B20650   5.537  23.572   4.325 -0.1750  0.1020  0.0590
    1DIPC   D3B20651   5.604  23.285   4.758 -0.0546 -0.0495 -0.0950
    1DIPC   C4B20652   5.352  23.196   5.106  0.0335 -0.3877  0.3178
    1DIPC   NC320653  12.429   6.289   3.156 -0.2841 -0.1703 -0.0549
    1DIPC   PO420654  12.531   6.680   3.302 -0.1151  0.0667  0.1100
    1DIPC   GL120655  12.499   6.659   3.766 -0.1261 -0.0914 -0.0035
    1DIPC   GL220656  12.578   6.344   3.908  0.0166 -0.2508  0.0333
    1DIPC   C1A20657  12.455   6.781   4.223 -0.3114 -0.4888 -0.0988
    1DIPC   D2A20658  12.571   6.570   4.590  0.2128 -0.1225 -0.2995
    1DIPC   D3A20659  12.792   6.173   4.679  0.0555  0.0915  0.1386
    1DIPC   C4A20660  13.059   6.181   5.033  0.1004  0.1531  0.1727
    1DIPC   C1B20661  12.405   6.253   4.284 -0.0496 -0.0737  0.0709
    1DIPC   D2B20662  12.276   6.081   4.753 -0.0084 -0.1510  0.0736
    1DIPC   D3B20663  12.088   6.275   5.124  0.1330  0.1089  0.0359
    1DIPC   C4B20664  11.688   6.159   5.220 -0.1306  0.0008 -0.0488
    1DIPC   NC320665  28.503  26.521   2.699 -0.3430 -0.0865  0.0585
    1DIPC   PO420666  28.860  26.587   3.050  0.0067 -0.1095  0.3763
    1DIPC   GL120667  28.624  26.658   3.452  0.1365 -0.1284  0.0947
    1DIPC   GL220668  28.400  26.924   3.503  0.1488  0.4180  0.2935
    1DIPC   C1A20669  28.875  26.854   3.844 -0.2696 -0.4321  0.0371
    1DIPC   D2A20670  29.047  26.897   4.293  0.1483  0.1408  0.2376
    1DIPC   D3A20671  29.005  26.862   4.704  0.0109 -0.2066 -0.1749
    1DIPC   C4A20672  29.220  26.825   5.037  0.4251 -0.1683 -0.1197
    1DIPC   C1B20673  28.476  26.572   3.946  0.1051  0.0174  0.0764
    1DIPC   D2B20674  28.596  26.197   3.835  0.1897  0.1338 -0.2198
    1DIPC   D3B20675  28.508  26.140   4.267  0.3933  0.2081 -0.0972
    1DIPC   C4B20676  28.115  26.388   4.580 -0.2390  0.0036  0.2537
    1DIPC   NC320677   8.656  12.486   2.765 -0.0474  0.0577  0.0751
    1DIPC   PO420678   8.238  12.546   2.634  0.0819 -0.3183 -0.3306
    1DIPC   GL120679   8.304  12.861   2.980 -0.1142 -0.2176 -0.1009
    1DIPC   GL220680   8.046  12.861   3.157  0.0882  0.1695 -0.0124
    1DIPC   C1A20681   8.405  13.032   3.478  0.0983 -0.0703  0.2763
    1DIPC   D2A20682   8.596  12.905   3.810 -0.1880 -0.0084  0.0283
    1DIPC   D3A20683   8.325  12.660   4.124 -0.0482  0.5349  0.0294
    1DIPC   C4A20684   7.862  12.560   4.073 -0.0334 -0.1652 -0.1657
    1DIPC   C1B20685   7.858  13.209   3.377  0.0013  0.0400  0.0002
    1DIPC   D2B20686   7.487  13.439   3.595  0.1708  0.0037  0.1773
    1DIPC   D3B20687   7.725  13.420   3.854 -0.2526 -0.0786 -0.1147
    1DIPC   C4B20688   8.081  13.604   4.142 -0.0817  0.1994 -0.0387
    1DIPC   NC320689  16.480  24.720   2.988 -0.0924  0.0818  0.2527
    1DIPC   PO420690  16.482  25.097   2.897 -0.2569 -0.0157 -0.2940
    1DIPC   GL120691  16.671  24.998   3.302  0.2132  0.2045  0.0449
    1DIPC   GL220692  16.502  24.721   3.501 -0.0419  0.1344  0.1189
    1DIPC   C1A20693  16.865  24.908   3.774  0.1490 -0.3566  0.1080
    1DIPC   D2A20694  16.939  24.649   4.235  0.0133 -0.1284 -0.0901
    1DIPC   D3A20695  16.962  25.132   4.250 -0.0897  0.1283 -0.1437
    1DIPC   C4A20696  17.309  25.398   4.314 -0.2225 -0.1573  0.2444
    1DIPC   C1B20697  16.553  24.566   3.930  0.1835 -0.1999  0.2618
    1DIPC   D2B20698  16.466  24.352   4.292  0.1148 -0.3194  0.1929
    1DIPC   D3B20699  16.129  24.704   4.248 -0.1744 -0.2846 -0.4272
    1DIPC   C4B20700  16.096  24.902   4.672 -0.2406 -0.0509  0.0096
    1DIPC   NC320701  22.478  20.796   3.396 -0.0145 -0.0181 -0.0129
    1DIPC   PO420702  22.896  21.011   3.516 -0.4115  0.2254 -0.2315
    1DIPC   GL120703  23.005  21.254   3.860 -0.1559 -0.0058 -0.6046
    1DIPC   GL220704  22.973  21.669   4.067 -0.1120  0.1661  0.1510
    1DIPC   C1A20705  22.889  21.254   4.302  0.1753 -0.2448 -0.2990
    1DIPC   D2A20706  22.887  21.251   4.684 -0.2694 -0.0121  0.0112
    1DIPC   D3A20707  22.776  20.837   4.917 -0.2344 -0.0648 -0.0667
    1DIPC   C4A20708  22.598  20.703   5.177 -0.1008 -0.0265 -0.1849
    1DIPC   C1B20709  23.140  21.750   4.525  0.4789  0.0822  0.1248
    1DIPC   D2B20710  23.234  21.856   4.928  0.2178 -0.2013  0.0249
    1DIPC   D3B20711  23.707  21.790   4.884  0.1217 -0.1520  0.0756
    1DIPC   C4B20712  23.866  22.156   4.553  0.1193 -0.1265 -0.1376
    1DIPC   NC320713   4.154  17.315   2.613  0.3751 -0.1384 -0.3162
    1DIPC   PO420714   4.516  17.532   2.586  0.2515  0.0172  0.0850
    1DIPC   GL120715   4.726  17.613   2.939  0.0899 -0.1958  0.0480
    1DIPC   GL220716   5.036  17.662   2.846 -0.0888  0.0148  0.1153
    1DIPC   C1A20717   4.779  17.630   3.385 -0.0555 -0.1567  0.0834
    1DIPC   D2A20718   4.800  17.666   3.836 -0.0444 -0.0421 -0.3120
    1DIPC   D3A20719   4.492  17.853   4.091 -0.1151  0.2072  0.0834
    1DIPC   C4A20720   4.562  18.101   4.338  0.1595 -0.0273 -0.0089
    1DIPC   C1B20721   5.239  17.682   3.270  0.0278  0.1322 -0.0940
    1DIPC   D2B20722   5.502  17.604   3.557  0.0507  0.2055 -0.3458
    1DIPC   D3B20723   5.256  17.351   3.716  0.0526 -0.1840 -0.0912
    1DIPC   C4B20724   5.157  17.000   3.435  0.0377 -0.2394 -0.3421
    1DIPC   NC320725  22.479   3.396   2.047 -0.1063  0.0636  0.1442
    1DIPC   PO420726  22.839   3.380   2.297  0.0100  0.2414  0.0298
    1DIPC   GL120727  22.854   3.482   2.781  0.1734  0.0811  0.1170
    1DIPC   GL220728  22.775   3.139   2.814  0.0917  0.0461 -0.0248
    1DIPC   C1A20729  23.227   3.265   3.041  0.1424  0.2931 -0.1187
    1DIPC   D2A20730  23.562   3.367   3.341 -0.1577 -0.1547 -0.0503
    1DIPC   D3A20731  23.494   3.132   3.738 -0.1261  0.3126 -0.1079
    1DIPC   C4A20732  23.242   2.909   3.780 -0.0852 -0.3288  0.2084
    1DIPC   C1B20733  22.893   2.804   3.111 -0.0344 -0.0279 -0.1971
    1DIPC   D2B20734  23.140   2.515   3.341 -0.1722 -0.1541  0.0739
    1DIPC   D3B20735  23.461   2.819   3.365  0.2594  0.0439 -0.0200
    1DIPC   C4B20736  23.656   2.786   2.998 -0.2234  0.1073 -0.1396
    1DIPC   NC320737   8.948  24.618   2.351 -0.1991  0.0982  0.2308
    1DIPC   PO420738   8.473  24.576   2.309 -0.0867  0.1519 -0.0429
    1DIPC   GL120739   8.500  24.430   2.755  0.0176  0.1659  0.0789
    1DIPC   GL220740   8.422  24.046   2.861  0.0136  0.3474 -0.2487
    1DIPC   C1A20741   8.383  24.834   3.018  0.1119 -0.0454  0.0599
    1DIPC   D2A20742   7.992  25.076   3.049 -0.0684  0.2646 -0.2617
    1DIPC   D3A20743   7.733  24.665   3.081 -0.0652 -0.2808  0.0908
    1DIPC   C4A20744   7.927  24.277   3.043  0.0451  0.1896  0.0683
    1DIPC   C1B20745   8.380  24.343   3.246 -0.0926 -0.0661 -0.0561
    1DIPC   D2B20746   8.404  24.466   3.713 -0.0348 -0.1277 -0.0725
    1DIPC   D3B20747   8.593  24.824   3.515 -0.2217  0.0627  0.1093
    1DIPC   C4B20748   8.919  24.990   3.771  0.1868 -0.0889 -0.1595
    1DIPC   NC320749  12.664  24.075   3.265  0.1949  0.2367 -0.4204
    1DIPC   PO420750  12.300  24.123   3.474  0.0334  0.0540  0.3282
    1DIPC   GL120751  11.988  24.030   3.773 -0.1606  0.0286  0.3341
    1DIPC   GL220752  11.742  24.303   3.647  0.0612 -0.0051 -0.1023
    1DIPC   C1A20753  11.952  23.751   4.146 -0.2545 -0.4498 -0.1651
    1DIPC   D2A20754  12.103  23.492   4.467  0.1980  0.2786  0.3214
    1DIPC   D3A20755  12.099  23.123   4.400  0.3551  0.0098  0.0293
    1DIPC   C4A20756  12.225  22.908   3.949 -0.2430 -0.0540 -0.0994
    1DIPC   C1B20757  11.490  23.947   3.761  0.0764  0.1831  0.0975
    1DIPC   D2B20758  11.299  23.697   4.078  0.1647  0.1874 -0.0569
    1DIPC   D3B20759  11.209  23.946   4.476 -0.1664  0.2940 -0.1678
    1DIPC   C4B20760  11.008  24.371   4.408  0.0818 -0.0828 -0.1051
    1DIPC   NC320761   2.013  14.594   2.210 -0.0268  0.2325 -0.1274
    1DIPC   PO420762   2.312  14.879   2.555 -0.0976  0.1293  0.1377
    1DIPC   GL120763   1.900  15.010   2.764  0.3147  0.0109  0.2650
    1DIPC   GL220764   1.575  15.117   2.605  0.0037 -0.1377  0.0238
    1DIPC   C1A20765   1.688  15.089   3.138  0.0032 -0.1055 -0.1616
    1DIPC   D2A20766   1.349  15.171   3.342 -0.1775 -0.1978 -0.0174
    1DIPC   D3A20767   1.613  15.262   3.668  0.1785  0.2549  0.3594
    1DIPC   C4A20768   2.033  15.131   3.509 -0.0643  0.2227 -0.1725
    1DIPC   C1B20769   1.464  14.767   2.785 -0.1222  0.2115 -0.1061
    1DIPC   D2B20770   1.623  14.587   3.141 -0.3276 -0.3433 -0.0184
    1DIPC   D3B20771   1.658  14.242   3.044 -0.0796 -0.1738  0.0774
    1DIPC   C4B20772   1.651  13.905   3.339  0.0087  0.2023 -0.1451
    1DIPC   NC320773   4.338   4.822   2.944  0.2171  0.2231  0.0570
    1DIPC   PO420774   4.153   4.578   2.676 -0.1362  0.0327 -0.0305
    1DIPC   GL120775   3.928   4.379   2.991  0.2216 -0.1780  0.0543
    1DIPC   GL220776   3.531   4.289   2.891  0.1821  0.3905 -0.1858
    1DIPC   C1A20777   3.638   4.303   3.362  0.0165 -0.1493  0.0188
    1DIPC   D2A20778   3.429   4.347   3.685  0.2092  0.4419  0.2577
    1DIPC   D3A20779   3.328   4.703   3.418 -0.1704 -0.0516 -0.1293
    1DIPC   C4A20780   3.474   5.147   3.389  0.0488 -0.0303 -0.1813
    1DIPC   C1B20781   3.499   4.671   2.971 -0.1996 -0.2081 -0.0046
    1DIPC   D2B20782   3.163   4.891   3.012  0.1528  0.1952  0.2334
    1DIPC   D3B20783   3.179   5.294   3.027  0.0278  0.3805 -0.2423
    1DIPC   C4B20784   3.098   5.573   3.393  0.2543  0.1028  0.0463
    1DIPC   NC320785  23.545  24.486   3.228  0.1445 -0.3000 -0.1732
    1DIPC   PO420786  23.978  24.621   3.357 -0.1857  0.3667  0.1821
    1DIPC   GL120787  24.027  24.932   3.625  0.0037 -0.0857  0.2318
    1DIPC   GL220788  23.801  25.142   3.783  0.0731 -0.1403 -0.1679
    1DIPC   C1A20789  24.358  25.182   3.907  0.1929  0.0907  0.3141
    1DIPC   D2A20790  24.554  25.418   4.199  0.2687 -0.1065 -0.4653
    1DIPC   D3A20791  24.897  25.225   3.901 -0.2630 -0.1304  0.1111
    1DIPC   C4A20792  25.063  24.829   4.080  0.2218 -0.1391  0.2780
    1DIPC   C1B20793  23.985  25.176   4.214 -0.2323 -0.2959  0.0610
    1DIPC   D2B20794  24.211  25.395   4.585 -0.1286 -0.0036  0.1222
    1DIPC   D3B20795  24.285  25.884   4.619  0.0878 -0.0201  0.4125
    1DIPC   C4B20796  24.080  26.197   4.861 -0.1844 -0.0086 -0.2142
    1DIPC   NC320797   8.541  12.689   2.237  0.0287  0.0605  0.0901
    1DIPC   PO420798   8.605  13.018   2.595 -0.1090 -0.1049  0.1407
    1DIPC   GL120799   8.764  13.224   2.931 -0.0081  0.2586 -0.0054
    1DIPC   GL220800   8.747  13.564   2.847  0.0291  0.0561 -0.1853
    1DIPC   C1A20801   8.848  13.286   3.287  0.0121 -0.0252 -0.0669
    1DIPC   D2A20802   8.785  13.411   3.775 -0.0560 -0.2129  0.2120
    1DIPC   D3A20803   8.545  13.424   4.137  0.2100 -0.1541  0.1967
    1DIPC   C4A20804   8.490  13.064   4.421  0.0228 -0.0979  0.0511
    1DIPC   C1B20805   8.911  13.795   3.209 -0.1289  0.3665  0.1438
    1DIPC   D2B20806   9.030  14.027   3.551  0.2072  0.1991 -0.0215
    1DIPC   D3B20807   9.003  13.956   3.895  0.2208 -0.0084  0.0262
    1DIPC   C4B20808   9.124  14.281   4.241  0.0819 -0.0133 -0.0224
    1DIPC   NC320809  21.351   1.399   2.645 -0.1412  0.1232  0.4440
    1DIPC   PO420810  21.157   1.496   3.031 -0.4504 -0.1188 -0.2640
    1DIPC   GL120811  20.858   1.389   3.315  0.0031 -0.3691 -0.0753
    1DIPC   GL220812  20.591   1.631   3.314 -0.4216  0.0100 -0.0922
    1DIPC   C1A20813  20.536   1.159   3.674  0.0531 -0.1244  0.1399
    1DIPC   D2A20814  20.311   1.043   3.971  0.2308  0.0580 -0.1947
    1DIPC   D3A20815  20.046   1.211   4.264  0.0903  0.0176 -0.1183
    1DIPC   C4A20816  20.103   1.568   4.452 -0.3981 -0.1926 -0.0807
    1DIPC   C1B20817  20.334   1.645   3.714 -0.0833  0.4582 -0.1529
    1DIPC   D2B20818  19.951   1.564   3.860  0.0359  0.2125  0.3561
    1DIPC   D3B20819  19.866   1.922   4.065  0.1478 -0.5589 -0.1945
    1DIPC   C4B20820  20.254   2.084   4.345 -0.0715  0.0747 -0.0694
    1DIPC   NC320821   1.522   9.752   2.751 -0.0822  0.1370  0.1941
    1DIPC   PO420822   1.593  10.207   2.837 -0.0778  0.2386  0.1435
    1DIPC   GL120823   1.797  10.486   3.036  0.1797  0.0999 -0.2043
    1DIPC   GL220824   1.579  10.708   3.185  0.3011  0.1127 -0.0080
    1DIPC   C1A20825   1.938  10.693   3.538  0.0470 -0.0778  0.2573
    1DIPC   D2A20826   2.195  11.039   3.654 -0.2269 -0.2148  0.0289
    1DIPC   D3A20827   2.624  10.758   3.845 -0.2280 -0.3953 -0.2126
    1DIPC   C4A20828   3.009  10.579   3.576 -0.0337 -0.1843 -0.0525
    1DIPC   C1B20829   1.459  10.812   3.639  0.3122 -0.0300 -0.2639
    1DIPC   D2B20830   1.772  10.948   3.956  0.2086 -0.1369  0.3898
    1DIPC   D3B20831   1.756  11.106   4.435 -0.1858  0.2839 -0.2051
    1DIPC   C4B20832   1.926  10.757   4.775  0.5694  0.3316  0.0871
    1DIPC   NC320833  24.837  15.061   2.363  0.0826 -0.1277 -0.0672
    1DIPC   PO420834  25.072  15.368   2.474  0.1050 -0.1295 -0.1289
    1DIPC   GL120835  25.008  15.666   2.836 -0.0651  0.2391 -0.0174
    1DIPC   GL220836  25.132  16.033   2.825  0.0690  0.0770  0.0225
    1DIPC   C1A20837  24.928  15.839   3.300  0.1101 -0.1972 -0.0236
    1DIPC   D2A20838  25.279  15.883   3.654 -0.2920 -0.2227 -0.0158
    1DIPC   D3A20839  25.695  15.989   3.515  0.0899 -0.4340  0.0922
    1DIPC   C4A20840  26.034  15.655   3.407 -0.0511 -0.1208 -0.0368
    1DIPC   C1B20841  25.390  16.011   3.106  0.0577 -0.0098 -0.1501
    1DIPC   D2B20842  25.575  16.415   3.221  0.4558 -0.1112 -0.0720
    1DIPC   D3B20843  25.631  16.455   3.707  0.1074  0.2120  0.4259
    1DIPC   C4B20844  26.040  16.338   3.972 -0.0426 -0.0579 -0.1412
    1DIPC   NC320845   5.941   3.773   2.820 -0.1203 -0.2118 -0.0555
    1DIPC   PO420846   5.619   3.468   2.765 -0.2708 -0.0867  0.1244
    1DIPC   GL120847   5.483   3.720   3.126  0.3969  0.1962  0.0934
    1DIPC   GL220848   5.172   3.526   3.397 -0.1470  0.0725 -0.0624
    1DIPC   C1A20849   5.640   3.805   3.609  0.2522 -0.0790  0.0626
    1DIPC   D2A20850   5.572   3.545   3.998 -0.0752 -0.1656  0.1869
    1DIPC   D3A20851   5.580   3.086   4.066 -0.1930  0.1561  0.2991
    1DIPC   C4A20852   5.347   2.983   4.437  0.1835 -0.0134 -0.0980
    1DIPC   C1B20853   5.116   3.732   3.829  0.1181  0.0221  0.0431
    1DIPC   D2B20854   5.099   3.458   4.199 -0.1420 -0.1546  0.2977
    1DIPC   D3B20855   4.977   3.861   4.305  0.1696 -0.2168 -0.2787
    1DIPC   C4B20856   4.854   4.139   4.053 -0.1152 -0.3755  0.1084
    1DIPC   NC320857   3.604   5.557   2.725 -0.0810 -0.1661 -0.4328
    1DIPC   PO420858   4.073   5.513   2.694 -0.4100 -0.1188 -0.0782
    1DIPC   GL120859   3.968   5.593   3.095  0.0865 -0.1035  0.0338
    1DIPC   GL220860   4.234   5.561   3.350 -0.0015 -0.0831 -0.0042
    1DIPC   C1A20861   3.950   5.202   3.351 -0.2852  0.1082  0.0010
    1DIPC   D2A20862   3.961   4.736   3.331  0.1373 -0.0725 -0.0616
    1DIPC   D3A20863   3.798   4.738   3.743  0.1066 -0.0080  0.0995
    1DIPC   C4A20864   3.648   5.088   3.936 -0.0038 -0.0741 -0.2124
    1DIPC   C1B20865   4.461   5.502   3.766  0.1157  0.3345 -0.0709
    1DIPC   D2B20866   4.790   5.648   4.007 -0.2512 -0.1610  0.0232
    1DIPC   D3B20867   4.434   5.920   4.192  0.1176 -0.0398 -0.2695
    1DIPC   C4B20868   4.367   6.110   4.519  0.1856 -0.2074 -0.1860
    1DIPC   NC320869  20.718  24.730   3.321  0.0184  0.5591 -0.3843
    1DIPC   PO420870  21.102  24.550   3.358  0.0154 -0.1691 -0.0270
    1DIPC   GL120871  21.038  24.665   3.804  0.0745 -0.1310  0.1405
    1DIPC   GL220872  20.694  24.668   3.843  0.0850 -0.1123 -0.1219
    1DIPC   C1A20873  20.999  24.684   4.298 -0.1845  0.0384 -0.0023
    1DIPC   D2A20874  21.054  24.712   4.789 -0.0773 -0.0653  0.1220
    1DIPC   D3A20875  20.980  24.380   4.992 -0.1463 -0.1656  0.1109
    1DIPC   C4A20876  21.342  24.154   4.950  0.1244 -0.0779  0.2834
    1DIPC   C1B20877  20.477  24.640   4.227  0.2474 -0.0922  0.1343
    1DIPC   D2B20878  20.211  25.008   4.351  0.2551  0.3815 -0.1340
    1DIPC   D3B20879  19.795  24.886   4.592  0.2234  0.1812  0.0462
    1DIPC   C4B20880  19.799  24.609   4.959 -0.1966  0.0503  0.1849
    1DIPC   NC320881   2.044  23.012   2.507  0.3659 -0.2019  0.1953
    1DIPC   PO420882   2.499  22.976   2.554  0.1051 -0.1919  0.1468
    1DIPC   GL120883   2.308  22.770   2.950  0.0735 -0.0166  0.0746
    1DIPC   GL220884   2.006  22.983   3.017 -0.2276  0.0813  0.0343
    1DIPC   C1A20885   2.100  22.611   3.314 -0.0083 -0.1592  0.2997
    1DIPC   D2A20886   1.888  22.359   3.541 -0.0521  0.1303  0.2670
    1DIPC   D3A20887   2.286  22.119   3.728  0.0154 -0.0810  0.1711
    1DIPC   C4A20888   2.659  22.351   3.929  0.0236  0.1238  0.3105
    1DIPC   C1B20889   1.808  23.233   3.317 -0.1842 -0.0001  0.1927
    1DIPC   D2B20890   1.700  23.323   3.797 -0.0804 -0.0830 -0.4674
    1DIPC   D3B20891   2.137  23.167   3.967  0.0433 -0.1587 -0.3210
    1DIPC   C4B20892   2.195  23.057   3.524  0.2712 -0.2558  0.1121
    1DIPC   NC320893   5.971  11.940   2.990 -0.0504  0.1273  0.1311
    1DIPC   PO420894   6.423  11.969   3.199 -0.3023 -0.2705  0.3195
    1DIPC   GL120895   6.260  12.069   3.598  0.1568 -0.2281 -0.1530
    1DIPC   GL220896   6.155  12.376   3.505  0.2743 -0.2023  0.0191
    1DIPC   C1A20897   6.188  12.182   3.962 -0.4349  0.0691  0.4561
    1DIPC   D2A20898   5.948  12.296   4.301  0.3939  0.1678  0.0093
    1DIPC   D3A20899   6.138  12.153   4.689  0.3251 -0.2064  0.0493
    1DIPC   C4A20900   5.911  11.811   4.777  0.0608  0.0645 -0.1289
    1DIPC   C1B20901   5.928  12.577   3.875 -0.1818  0.4181  0.0889
    1DIPC   D2B20902   5.839  12.754   4.186 -0.3309 -0.0671 -0.2706
    1DIPC   D3B20903   5.489  12.460   4.203 -0.0136  0.1112  0.1938
    1DIPC   C4B20904   5.543  12.134   4.469  0.0665  0.4051  0.4019
    1DIPC   NC320905  24.044  26.938   2.564  0.1260 -0.1530  0.1662
    1DIPC   PO420906  24.006  26.648   2.891  0.0948  0.2440  0.0303
    1DIPC   GL120907  24.122  26.890   3.259 -0.1654  0.1573 -0.1607
    1DIPC   GL220908  24.082  27.204   3.103 -0.1572  0.1008  0.1442
    1DIPC   C1A20909  24.153  26.791   3.714  0.1849  0.4101  0.2549
    1DIPC   D2A20910  23.726  26.548   3.871 -0.0494  0.1029  0.2146
    1DIPC   D3A20911  23.427  26.488   4.228  0.2620  0.1735 -0.0120
    1DIPC   C4A20912  23.487  26.908   4.533 -0.1324 -0.0586  0.0900
    1DIPC   C1B20913  23.709  27.042   3.516 -0.0228 -0.0876 -0.2605
    1DIPC   D2B20914  23.573  27.001   3.944 -0.0271  0.2082  0.2750
    1DIPC   D3B20915  23.218  27.295   4.205  0.0695 -0.1020 -0.1728
    1DIPC   C4B20916  23.389  27.502   4.500 -0.1480 -0.1406  0.1952
    1DIPC   NC320917  28.676   8.398   2.707 -0.0131  0.0209 -0.3683
    1DIPC   PO420918  28.492   8.038   2.764  0.1857 -0.0642  0.2066
    1DIPC   GL120919  28.442   8.113   3.157 -0.1158 -0.0786  0.4576
    1DIPC   GL220920  28.348   8.455   3.139  0.0509  0.0286 -0.0164
    1DIPC   C1A20921  28.514   7.929   3.527  0.0674 -0.3072  0.1964
    1DIPC   D2A20922  28.479   7.808   3.980 -0.2567 -0.1520  0.0673
    1DIPC   D3A20923  28.351   7.385   4.161  0.1482 -0.2168 -0.1345
    1DIPC   C4A20924  27.891   7.301   4.262 -0.0187 -0.0796 -0.1205
    1DIPC   C1B20925  28.391   8.512   3.597  0.0075  0.0862 -0.1434
    1DIPC   D2B20926  28.453   8.892   3.871  0.0030  0.1282 -0.2839
    1DIPC   D3B20927  28.329   9.164   3.574  0.0264  0.1187  0.2160
    1DIPC   C4B20928  28.183   9.649   3.593  0.0802 -0.3099  0.0585
    1DIPC   NC320929  15.354   7.823   3.278 -0.2878  0.3128 -0.0010
    1DIPC   PO420930  14.860   7.767   3.437  0.0069  0.0226  0.0003
    1DIPC   GL120931  15.090   7.888   3.774 -0.2438  0.2058  0.1538
    1DIPC   GL220932  15.041   8.207   3.943  0.0810 -0.0139  0.0239
    1DIPC   C1A20933  15.127   7.788   4.225 -0.0654  0.1196 -0.2375
    1DIPC   D2A20934  14.814   7.473   4.486 -0.0470 -0.0263  0.1112
    1DIPC   D3A20935  15.008   7.802   4.781 -0.0933  0.1514  0.0871
    1DIPC   C4A20936  15.246   8.088   4.610  0.0120  0.1461  0.0101
    1DIPC   C1B20937  15.104   8.404   4.284  0.1874 -0.0435  0.0054
    1DIPC   D2B20938  15.265   8.548   4.725  0.1950  0.1920  0.2547
    1DIPC   D3B20939  15.501   8.175   5.005 -0.0436 -0.1320  0.0635
    1DIPC   C4B20940  15.779   8.202   5.393  0.3439  0.1946  0.0044
    1DIPC   NC320941  17.397  21.218   3.060 -0.0349  0.2804 -0.1810
    1DIPC   PO420942  17.380  20.787   3.151  0.2991  0.0167  0.0357
    1DIPC   GL120943  17.399  20.905   3.506  0.1053  0.0313  0.0220
    1DIPC   GL220944  17.011  20.895   3.606  0.0020  0.0478  0.1125
    1DIPC   C1A20945  17.513  21.350   3.735 -0.0663 -0.1921  0.0325
    1DIPC   D2A20946  17.621  21.622   4.008 -0.0163  0.2652 -0.1231
    1DIPC   D3A20947  17.785  21.798   4.373  0.0519  0.1631 -0.0855
    1DIPC   C4A20948  17.466  21.911   4.550  0.1470  0.1865 -0.3456
    1DIPC   C1B20949  17.001  21.132   3.920  0.2893 -0.1212 -0.0572
    1DIPC   D2B20950  17.322  21.131   4.228  0.3211  0.3496  0.0621
    1DIPC   D3B20951  17.486  21.429   4.562  0.0733  0.0593 -0.1098
    1DIPC   C4B20952  17.195  21.545   4.789 -0.1871 -0.0396  0.5004
    1DIPC   NC320953  22.943  28.682   2.828  0.1422 -0.0914  0.1526
    1DIPC   PO420954  22.620  28.402   2.896 -0.1544 -0.1593  0.1414
    1DIPC   GL120955  22.606  28.613   3.320 -0.1805  0.0389 -0.1684
    1DIPC   GL220956  22.935  28.562   3.289 -0.1798 -0.0349  0.0132
    1DIPC   C1A20957  22.750  28.983   3.445  0.3532  0.1014 -0.4906
    1DIPC   D2A20958  22.772  29.384   3.374  0.0277 -0.0525 -0.1519
    1DIPC   D3A20959  22.554  29.184   3.845 -0.0939  0.0141 -0.3447
    1DIPC   C4A20960  22.380  28.863   3.951  0.3342  0.0908 -0.1678
    1DIPC   C1B20961  23.301  28.473   3.561  0.1801 -0.1816 -0.0952
    1DIPC   D2B20962  23.244  28.385   4.035 -0.1797  0.0002 -0.2309
    1DIPC   D3B20963  23.469  28.342   4.345 -0.1800  0.1256  0.0834
    1DIPC   C4B20964  23.857  28.497   4.433  0.2220 -0.1656  0.1979
    1DIPC   NC320965   3.172   5.119   2.051 -0.0766 -0.0060 -0.1308
    1DIPC   PO420966   3.047   4.743   2.295 -0.1079  0.0868 -0.0619
    1DIPC   GL120967   2.810   4.994   2.390 -0.1924  0.1765 -0.0423
    1DIPC   GL220968   2.584   4.941   2.369  0.0020  0.0433 -0.2700
    1DIPC   C1A20969   2.747   5.203   2.787  0.0473  0.3360 -0.1412
    1DIPC   D2A20970   2.713   5.531   3.081  0.0958  0.0055  0.3059
    1DIPC   D3A20971   2.642   5.880   3.430 -0.0448  0.2003  0.0912
    1DIPC   C4A20972   2.338   5.997   3.668 -0.3119 -0.1671 -0.4515
    1DIPC   C1B20973   2.320   4.914   2.782 -0.2216 -0.0855  0.0248
    1DIPC   D2B20974   2.353   5.173   3.179  0.1003 -0.4023  0.0550
    1DIPC   D3B20975   2.724   4.897   3.249 -0.1070  0.1070  0.0455
    1DIPC   C4B20976   2.886   5.097   3.560 -0.1883 -0.2376 -0.0468
    1DIPC   NC320977  27.219  12.003   2.693  0.2652  0.1256 -0.2276
    1DIPC   PO420978  27.472  11.694   2.732 -0.0235  0.0688 -0.2227
    1DIPC   GL120979  27.524  11.546   3.273  0.0231 -0.2952  0.2047
    1DIPC   GL220980  27.138  11.583   3.244 -0.0872  0.0020  0.1784
    1DIPC   C1A20981  27.251  11.621   3.711  0.0361 -0.0495  0.0241
    1DIPC   D2A20982  27.127  11.386   4.030 -0.1772 -0.3927 -0.1250
    1DIPC   D3A20983  26.771  11.732   3.979  0.1448 -0.0097 -0.1758
    1DIPC   C4A20984  26.288  11.575   3.873 -0.3719  0.1573 -0.0190
    1DIPC   C1B20985  26.695  11.581   3.462 -0.2431  0.0293 -0.0953
    1DIPC   D2B20986  26.445  11.915   3.539 -0.1160  0.2508 -0.0681
    1DIPC   D3B20987  26.893  12.037   3.607 -0.0734  0.0385  0.1745
    1DIPC   C4B20988  27.025  12.261   3.995 -0.1099  0.1211  0.2205
    1DIPC   NC320989   5.381   6.366   2.886 -0.3618  0.0797 -0.0310
    1DIPC   PO420990   5.489   6.723   3.038 -0.0166 -0.0167 -0.0658
    1DIPC   GL120991   5.113   6.806   3.273  0.0746 -0.4619 -0.1754
    1DIPC   GL220992   4.833   6.783   3.199  0.0231  0.2568 -0.1480
    1DIPC   C1A20993   4.972   7.041   3.631 -0.0387 -0.0028 -0.1873
    1DIPC   D2A20994   4.632   7.122   3.976 -0.1904 -0.0667 -0.1490
    1DIPC   D3A20995   4.147   7.188   3.854 -0.0901 -0.1397 -0.0486
    1DIPC   C4A20996   3.844   7.311   4.173 -0.1221  0.0251 -0.2571
    1DIPC   C1B20997   4.541   6.682   3.612  0.0857  0.4068  0.0892
    1DIPC   D2B20998   4.334   6.548   3.904  0.2175  0.0819 -0.4308
    1DIPC   D3B20999   3.961   6.737   3.587 -0.1768  0.1318  0.3875
    1DIPC   C4B21000   3.678   7.123   3.560  0.0668 -0.2770 -0.0824
    1DIPC   NC321001   0.185  12.305   2.605  0.0708 -0.0865  0.1099
    1DIPC   PO421002   0.293  12.076   2.997 -0.1332  0.0244 -0.2051
    1DIPC   GL121003   0.062  12.026   3.442 -0.2111 -0.2038  0.0866
    1DIPC   GL221004   0.085  12.352   3.605  0.1794  0.0823  0.3130
    1DIPC   C1A21005   0.202  11.989   3.863  0.2029  0.0662  0.1245
    1DIPC   D2A21006   0.257  11.604   4.220  0.1153 -0.1700  0.1065
    1DIPC   D3A21007   0.805  11.539   4.118  0.0179  0.3566 -0.1055
    1DIPC   C4A21008   1.046  11.530   4.534  0.4135 -0.0593  0.0841
    1DIPC   C1B21009  -0.024  12.470   4.064 -0.0357 -0.0948  0.0405
    1DIPC   D2B21010  -0.231  12.861   4.234 -0.0674 -0.0441 -0.0230
    1DIPC   D3B21011  -0.213  13.151   4.584  0.4636 -0.0249 -0.0573
    1DIPC   C4B21012   0.037  13.385   4.649  0.0704 -0.0734 -0.1710
    1DIPC   NC321013   2.125  24.499   2.982 -0.2376  0.0654  0.2823
    1DIPC   PO421014   1.788  24.535   2.764  0.1561 -0.2257 -0.0042
    1DIPC   GL121015   1.611  24.554   3.103  0.1313  0.0389 -0.2281
    1DIPC   GL221016   1.620  24.947   3.300  0.1577  0.1746  0.0080
    1DIPC   C1A21017   1.895  24.517   3.518  0.0880 -0.1301 -0.0025
    1DIPC   D2A21018   1.929  24.254   3.833 -0.3683  0.0812 -0.0994
    1DIPC   D3A21019   1.580  24.531   4.031  0.2117 -0.1143  0.0704
    1DIPC   C4A21020   1.659  24.543   4.547  0.0390 -0.1926 -0.1352
    1DIPC   C1B21021   1.511  24.802   3.650 -0.0877 -0.0472  0.0539
    1DIPC   D2B21022   1.099  24.826   3.858 -0.0277  0.1715 -0.2611
    1DIPC   D3B21023   0.663  24.617   3.884 -0.2681 -0.0045 -0.2253
    1DIPC   C4B21024   0.559  24.258   4.110 -0.1740  0.2217 -0.2008
    1DIPC   NC321025  19.900   9.285   3.255 -0.1049  0.4593  0.0836
    1DIPC   PO421026  19.774   8.913   3.070 -0.2377  0.0630  0.0430
    1DIPC   GL121027  19.636   8.779   3.463  0.0406 -0.1379  0.2648
    1DIPC   GL221028  19.740   9.011   3.713 -0.0598 -0.2533  0.1969
    1DIPC   C1A21029  19.414   8.668   3.874  0.1123  0.0913  0.1745
    1DIPC   D2A21030  19.257   8.504   4.322 -0.1561  0.2328  0.2917
    1DIPC   D3A21031  19.090   8.818   4.674  0.0050 -0.0307 -0.0787
    1DIPC   C4A21032  18.674   8.831   4.834  0.4777 -0.0170 -0.0058
    1DIPC   C1B21033  19.502   9.182   4.071 -0.0738 -0.0985 -0.2794
    1DIPC   D2B21034  19.177   9.000   4.181 -0.0075  0.1401 -0.0164
    1DIPC   D3B21035  19.227   9.387   4.546 -0.0030 -0.1790  0.3423
    1DIPC   C4B21036  19.539   9.457   4.809  0.1404  0.2083 -0.3489
    1DIPC   NC321037  27.030   9.088   2.037  0.1562  0.2438  0.2379
    1DIPC   PO421038  27.183   9.350   2.373  0.0342  0.6460 -0.0690
    1DIPC   GL121039  27.027   9.296   2.730 -0.1426 -0.0709  0.2003
    1DIPC   GL221040  26.790   9.023   2.761 -0.2442  0.1320 -0.0302
    1DIPC   C1A21041  26.958   9.379   3.249  0.0801 -0.1128  0.0056
    1DIPC   D2A21042  26.871   9.285   3.653 -0.1033 -0.1961 -0.0211
    1DIPC   D3A21043  26.571   9.569   3.797  0.2160  0.2855 -0.1931
    1DIPC   C4A21044  26.315   9.495   4.170 -0.1451  0.1354  0.1310
    1DIPC   C1B21045  26.720   8.891   3.205  0.3431  0.0012  0.0590
    1DIPC   D2B21046  26.983   8.829   3.561 -0.0673 -0.2270  0.1384
    1DIPC   D3B21047  26.735   8.824   4.011 -0.3790 -0.0104  0.1440
    1DIPC   C4B21048  26.815   8.962   4.402 -0.3287  0.0345  0.0258
    1DIPC   NC321049  26.513  20.482   3.107  0.2334 -0.1196 -0.3958
    1DIPC   PO421050  26.566  20.148   2.845 -0.0561  0.2128  0.2129
    1DIPC   GL121051  26.597  19.945   3.190  0.0035  0.0773  0.0841
    1DIPC   GL221052  26.403  20.067   3.366 -0.1615 -0.0743  0.1050
    1DIPC   C1A21053  26.932  19.630   3.375 -0.2132 -0.0447  0.0795
    1DIPC   D2A21054  27.149  19.326   3.619  0.0138 -0.2201 -0.0325
    1DIPC   D3A21055  26.908  19.086   3.839  0.1238  0.0339 -0.0522
    1DIPC   C4A21056  26.565  19.193   4.074 -0.1376  0.2067 -0.1708
    1DIPC   C1B21057  26.697  19.942   3.717  0.1018 -0.0326  0.1907
    1DIPC   D2B21058  26.835  19.620   3.935 -0.1740  0.0825 -0.1999
    1DIPC   D3B21059  26.489  19.722   4.154  0.3835  0.1521  0.3015
    1DIPC   C4B21060  26.129  19.631   4.249 -0.1841  0.0910  0.2460
    1DIPC   NC321061  25.969  12.526   1.785 -0.0969 -0.0731 -0.1757
    1DIPC   PO421062  26.058  12.422   2.192 -0.1042  0.0418  0.0545
    1DIPC   GL121063  25.970  12.222   2.547  0.1173  0.3253  0.1507
    1DIPC   GL221064  25.622  12.175   2.470  0.0218  0.1833  0.1895
    1DIPC   C1A21065  25.959  12.175   2.927  0.0409  0.2337  0.0037
    1DIPC   D2A21066  26.277  11.953   3.064  0.0448 -0.0294 -0.0281
    1DIPC   D3A21067  25.973  11.713   3.302  0.1847  0.0625  0.0311
    1DIPC   C4A21068  25.726  11.714   3.798  0.2384  0.1144  0.1089
    1DIPC   C1B21069  25.383  12.025   2.723  0.0083 -0.0568 -0.0451
    1DIPC   D2B21070  25.089  11.720   2.950  0.3859 -0.1222  0.0858
    1DIPC   D3B21071  24.766  11.822   3.251 -0.3545  0.1302 -0.1680
    1DIPC   C4B21072  25.059  12.147   3.529  0.0858  0.2695  0.3194
    1DIPC   NC321073  15.866   5.364   3.435 -0.2591  0.0252 -0.0019
    1DIPC   PO421074  16.275   5.232   3.487 -0.0356  0.1603 -0.3615
    1DIPC   GL121075  16.507   5.370   3.861  0.0547  0.1153  0.0053
    1DIPC   GL221076  16.449   5.144   4.040 -0.1994  0.1189 -0.0211
    1DIPC   C1A21077  16.661   5.488   4.358  0.2299 -0.3682  0.2411
    1DIPC   D2A21078  16.895   5.787   4.680 -0.1078  0.0646  0.2250
    1DIPC   D3A21079  17.030   5.746   5.050  0.2897  0.1308  0.1503
    1DIPC   C4A21080  17.295   5.307   5.163 -0.3074 -0.2859 -0.2206
    1DIPC   C1B21081  16.188   5.134   4.424  0.2215  0.2176 -0.0104
    1DIPC   D2B21082  16.017   5.080   4.875  0.2052 -0.1270 -0.2173
    1DIPC   D3B21083  16.381   4.860   5.024  0.2039  0.2311 -0.1023
    1DIPC   C4B21084  16.610   4.557   4.762  0.3770  0.0181  0.0772
    1DIPC   NC321085   3.809   7.542   2.634  0.0353  0.3713 -0.2924
    1DIPC   PO421086   3.650   7.123   2.559 -0.0843  0.0707  0.1039
    1DIPC   GL121087   3.966   7.043   2.960 -0.3481  0.0575  0.0025
    1DIPC   GL221088   3.720   7.280   3.050  0.3803  0.1439  0.0251
    1DIPC   C1A21089   4.235   7.010   3.319 -0.3018 -0.1171  0.0801
    1DIPC   D2A21090   4.514   7.239   3.511  0.2681 -0.1016  0.2677
    1DIPC   D3A21091   4.612   7.542   3.751  0.0767 -0.0157  0.1494
    1DIPC   C4A21092   5.076   7.648   3.817 -0.0975 -0.1136  0.0248
    1DIPC   C1B21093   3.430   7.479   3.284 -0.1166 -0.0097  0.0925
    1DIPC   D2B21094   3.306   7.408   3.714 -0.0556 -0.0134 -0.1927
    1DIPC   D3B21095   3.165   7.075   3.492  0.2669  0.0586 -0.5157
    1DIPC   C4B21096   2.781   6.924   3.612  0.2385 -0.0565  0.1091
    1DIPC   NC321097  15.926   2.578   3.523  0.0681  0.0173 -0.0679
    1DIPC   PO421098  15.987   2.229   3.310 -0.2479 -0.0963 -0.0558
    1DIPC   GL121099  15.933   2.132   3.757 -0.0861  0.2673  0.2837
    1DIPC   GL221100  16.106   2.133   4.014  0.2273 -0.4247  0.2097
    1DIPC   C1A21101  15.793   1.725   4.044  0.3682  0.3419 -0.2789
    1DIPC   D2A21102  15.899   1.437   4.491  0.1790 -0.1111 -0.4318
    1DIPC   D3A21103  15.938   1.206   4.934  0.1212  0.1184 -0.2318
    1DIPC   C4A21104  15.585   0.986   5.172 -0.0281  0.2646 -0.2305
    1DIPC   C1B21105  15.841   2.345   4.259 -0.0164 -0.1326 -0.1251
    1DIPC   D2B21106  15.577   2.597   4.365  0.1940 -0.1973 -0.1380
    1DIPC   D3B21107  15.514   2.312   4.654  0.1226  0.1165 -0.1268
    1DIPC   C4B21108  15.784   2.159   4.908  0.1369  0.2148 -0.0582
    1DIPC   NC321109  10.376   5.349   3.642 -0.1768  0.1681 -0.2648
    1DIPC   PO421110  10.097   5.017   3.542 -0.2177 -0.0697  0.1046
    1DIPC   GL121111  10.028   5.006   4.014  0.1657  0.0940  0.0635
    1DIPC   GL221112  10.324   5.211   4.170 -0.1282  0.0063  0.1909
    1DIPC   C1A21113   9.784   5.257   4.457  0.0676 -0.3174  0.1511
    1DIPC   D2A21114   9.958   5.376   4.874  0.4102 -0.0379  0.1185
    1DIPC   D3A21115  10.075   5.703   4.813  0.1390  0.1695  0.2440
    1DIPC   C4A21116   9.908   5.754   4.437  0.1473  0.1864 -0.0855
    1DIPC   C1B21117  10.314   5.253   4.574  0.1625  0.2006 -0.1963
    1DIPC   D2B21118  10.306   5.108   5.117  0.1937  0.2200 -0.3687
    1DIPC   D3B21119   9.977   4.872   5.353  0.0225  0.0647  0.1820
    1DIPC   C4B21120  10.073   4.475   5.226  0.1269  0.2626  0.3512
    1DIPC   NC321121  27.313   9.817   2.543 -0.0201  0.0695  0.1981
    1DIPC   PO421122  27.559  10.150   2.769 -0.1877  0.0838  0.0050
    1DIPC   GL121123  27.531   9.950   3.179 -0.2081 -0.0895 -0.2976
    1DIPC   GL221124  27.314  10.045   3.262 -0.3117  0.0258 -0.3086
    1DIPC   C1A21125  27.712   9.870   3.544  0.0216  0.1141 -0.1111
    1DIPC   D2A21126  27.616   9.921   4.012 -0.2221  0.0979 -0.2805
    1DIPC   D3A21127  27.335   9.683   3.812  0.1571  0.0717  0.1968
    1DIPC   C4A21128  27.381   9.536   3.368 -0.2574  0.1180 -0.0534
    1DIPC   C1B21129  27.275  10.160   3.629  0.2492 -0.1598  0.0264
    1DIPC   D2B21130  26.999  10.379   3.907  0.0443 -0.0503  0.0562
    1DIPC   D3B21131  27.381  10.357   4.220 -0.1145  0.3570 -0.1638
    1DIPC   C4B21132  27.513  10.617   4.465  0.1192 -0.0002 -0.1518
    1DIPC   NC321133  17.932  20.518   2.879 -0.1669  0.1254  0.3308
    1DIPC   PO421134  17.840  20.396   3.308 -0.1695  0.0377  0.0873
    1DIPC   GL121135  18.013  20.693   3.640 -0.0455 -0.0279 -0.2624
    1DIPC   GL221136  18.278  20.877   3.667 -0.2817 -0.0649 -0.2322
    1DIPC   C1A21137  17.829  20.987   3.936  0.4872 -0.0770 -0.2273
    1DIPC   D2A21138  17.999  21.292   4.283  0.2516  0.2904 -0.1887
    1DIPC   D3A21139  18.218  21.384   3.818  0.0391  0.2741  0.0024
    1DIPC   C4A21140  18.563  21.709   3.817  0.1083 -0.1471 -0.0374
    1DIPC   C1B21141  18.380  20.968   4.104  0.1901  0.1002  0.0341
    1DIPC   D2B21142  18.606  21.275   4.232  0.1191 -0.0737  0.0830
    1DIPC   D3B21143  18.311  21.697   4.260 -0.2163 -0.3932 -0.1307
    1DIPC   C4B21144  18.048  21.831   3.917 -0.2129 -0.2394  0.3992
    1DIPC   NC321145   3.687  27.465   2.497  0.0005 -0.0522 -0.2267
    1DIPC   PO421146   3.580  27.623   2.907  0.1773  0.1138 -0.2573
    1DIPC   GL121147   3.448  27.415   3.396 -0.1447 -0.2978 -0.1663
    1DIPC   GL221148   3.357  27.220   3.736  0.0224  0.0267 -0.2230
    1DIPC   C1A21149   3.729  27.527   3.742  0.2118 -0.1104  0.0526
    1DIPC   D2A21150   4.095  27.516   3.982 -0.0155  0.0957 -0.1616
    1DIPC   D3A21151   3.882  27.754   4.243 -0.0660 -0.1077 -0.1415
    1DIPC   C4A21152   3.492  27.909   4.187  0.1474 -0.1026 -0.1555
    1DIPC   C1B21153   3.271  26.805   3.879  0.1157  0.3496  0.4439
    1DIPC   D2B21154   3.266  26.720   4.313  0.3230  0.4051  0.2311
    1DIPC   D3B21155   3.496  26.296   4.493  0.0681  0.2254  0.1725
    1DIPC   C4B21156   3.931  26.301   4.463  0.0145 -0.0212 -0.5188
    1DIPC   NC321157  11.823   4.703   3.532  0.0701  0.0926 -0.0896
    1DIPC   PO421158  11.368   4.567   3.761 -0.1398  0.0759  0.0451
    1DIPC   GL121159  11.162   4.584   4.181 -0.1581  0.4996 -0.0008
    1DIPC   GL221160  10.853   4.831   4.242 -0.0026 -0.0600 -0.1680
    1DIPC   C1A21161  11.183   4.699   4.668 -0.3787 -0.3382  0.2756
    1DIPC   D2A21162  11.238   5.166   4.711  0.0931  0.1904  0.0449
    1DIPC   D3A21163  10.937   5.265   4.535  0.1622  0.0488  0.3065
    1DIPC   C4A21164  10.773   5.050   4.876 -0.0828 -0.4444  0.2286
    1DIPC   C1B21165  10.615   4.703   4.565 -0.3032 -0.1162 -0.0345
    1DIPC   D2B21166  10.213   4.682   4.818  0.0611 -0.1764 -0.1338
    1DIPC   D3B21167  10.066   4.782   4.432 -0.0315  0.3196 -0.3716
    1DIPC   C4B21168  10.251   4.531   4.209 -0.0648 -0.1249 -0.4425
    1DIPC   NC321169  27.510   0.925   3.327  0.1936  0.0614 -0.1016
    1DIPC   PO421170  27.653   1.266   3.596  0.0951 -0.1031 -0.0280
    1DIPC   GL121171  27.679   1.380   3.993  0.1266  0.0229 -0.2848
    1DIPC   GL221172  27.590   1.610   4.027  0.1508  0.1067 -0.0868
    1DIPC   C1A21173  27.338   1.284   4.234 -0.0327  0.0544 -0.0405
    1DIPC   D2A21174  27.125   1.503   4.508  0.0015 -0.5030 -0.3851
    1DIPC   D3A21175  27.295   1.233   4.819  0.0108  0.0933 -0.0880
    1DIPC   C4A21176  27.159   0.872   5.007  0.1705  0.0102 -0.0029
    1DIPC   C1B21177  27.565   1.770   4.356 -0.0723  0.1337 -0.3247
    1DIPC   D2B21178  27.750   2.152   4.636  0.0963  0.1239 -0.0485
    1DIPC   D3B21179  27.915   1.797   4.801  0.0734  0.0011 -0.0588
    1DIPC   C4B21180  27.809   1.372   4.749 -0.1968 -0.2536  0.0622
    1DIPC   NC321181  25.978  21.222   3.071 -0.1659 -0.2668  0.0113
    1DIPC   PO421182  26.167  20.736   2.857  0.1649 -0.3080 -0.2999
    1DIPC   GL121183  26.098  20.747   3.330 -0.1944  0.0595  0.1351
    1DIPC   GL221184  25.839  20.529   3.544  0.0522 -0.0151  0.0645
    1DIPC   C1A21185  26.339  20.452   3.743 -0.2691  0.1515  0.0358
    1DIPC   D2A21186  26.498  20.256   4.104 -0.2020  0.1690  0.1730
    1DIPC   D3A21187  26.788  20.437   3.922 -0.3900 -0.1023  0.2178
    1DIPC   C4A21188  26.982  20.549   4.254  0.1804  0.1848 -0.0088
    1DIPC   C1B21189  25.609  20.212   3.755 -0.2599 -0.0327  0.1717
    1DIPC   D2B21190  25.425  20.204   4.098  0.0884 -0.1517  0.1047
    1DIPC   D3B21191  25.126  20.123   4.399  0.0320 -0.2464 -0.2504
    1DIPC   C4B21192  24.722  20.127   4.228  0.0191 -0.5722  0.0536
    1DIPC   NC321193  17.713  27.427   2.989 -0.2580 -0.1757 -0.2419
    1DIPC   PO421194  17.285  27.330   3.160  0.2501 -0.1904 -0.1092
    1DIPC   GL121195  17.301  27.184   3.655  0.0512 -0.1651 -0.0072
    1DIPC   GL221196  17.596  27.112   3.748  0.3553 -0.1403 -0.2062
    1DIPC   C1A21197  17.034  27.136   4.019 -0.1664 -0.0924  0.0506
    1DIPC   D2A21198  16.933  27.383   4.458 -0.0781  0.0757  0.0382
    1DIPC   D3A21199  17.382  27.390   4.360  0.1557  0.0026  0.1393
    1DIPC   C4A21200  17.635  27.578   4.767 -0.0192  0.2925  0.1477
    1DIPC   C1B21201  17.764  27.130   4.072 -0.0362  0.1568 -0.2014
    1DIPC   D2B21202  17.745  27.141   4.558  0.0682  0.3621  0.0571
    1DIPC   D3B21203  18.010  27.352   4.787 -0.1984  0.1654 -0.2169
    1DIPC   C4B21204  18.124  27.231   5.142  0.1836 -0.0123 -0.0496
    1DIPC   NC321205  18.933  24.200   2.551  0.0561 -0.0863  0.1523
    1DIPC   PO421206  19.111  23.919   2.878 -0.1002  0.2893  0.2919
    1DIPC   GL121207  19.106  24.011   3.317  0.1990 -0.4360 -0.2202
    1DIPC   GL221208  19.353  24.302   3.426  0.1886 -0.3260 -0.0775
    1DIPC   C1A21209  19.238  23.763   3.690 -0.2504 -0.1183 -0.0352
    1DIPC   D2A21210  19.231  23.480   4.062  0.1750 -0.2054  0.3411
    1DIPC   D3A21211  19.035  23.587   4.450 -0.0187 -0.1138 -0.0268
    1DIPC   C4A21212  19.138  24.009   4.659  0.3839 -0.1732  0.0260
    1DIPC   C1B21213  19.154  24.286   3.799  0.3468  0.3233  0.2176
    1DIPC   D2B21214  18.853  24.480   4.018 -0.0069 -0.0683  0.0174
    1DIPC   D3B21215  18.999  24.361   4.368 -0.2274  0.1023 -0.2173
    1DIPC   C4B21216  19.396  24.027   4.246 -0.2750  0.0162 -0.1155
    1DIPC   NC321217  20.968   4.834   2.941  0.0412 -0.3178  0.1659
    1DIPC   PO421218  20.966   4.611   2.594  0.2508 -0.0729 -0.2086
    1DIPC   GL121219  21.229   4.424   2.950 -0.3528  0.0366  0.0787
    1DIPC   GL221220  21.405   4.652   3.213  0.0519  0.1304 -0.0713
    1DIPC   C1A21221  21.089   4.363   3.470 -0.0943 -0.1142  0.1124
    1DIPC   D2A21222  21.342   4.331   3.828  0.1042 -0.1688  0.2820
    1DIPC   D3A21223  20.906   4.475   3.927  0.5080 -0.4109 -0.2036
    1DIPC   C4A21224  20.522   4.457   4.085  0.0361  0.0652  0.0918
    1DIPC   C1B21225  21.316   4.861   3.597 -0.0743 -0.0608 -0.0596
    1DIPC   D2B21226  20.832   4.941   3.574  0.3001 -0.0473 -0.2863
    1DIPC   D3B21227  20.501   4.903   3.787  0.0481 -0.5049  0.1410
    1DIPC   C4B21228  20.464   5.090   4.228 -0.3782  0.2100  0.2802
    1DIPC   NC321229  18.487  22.835   2.920 -0.1921  0.0028  0.0004
    1DIPC   PO421230  18.045  23.095   2.910 -0.2810 -0.0307  0.1094
    1DIPC   GL121231  17.846  22.992   3.306  0.0092  0.0608 -0.0245
    1DIPC   GL221232  17.611  23.204   3.285 -0.2095 -0.0984  0.2555
    1DIPC   C1A21233  17.936  22.783   3.664 -0.1246  0.3382 -0.2479
    1DIPC   D2A21234  18.195  23.081   3.814  0.0906 -0.0432 -0.0326
    1DIPC   D3A21235  18.055  23.386   3.553 -0.1424 -0.1390  0.1996
    1DIPC   C4A21236  17.765  23.650   3.877 -0.0699  0.0002  0.4764
    1DIPC   C1B21237  17.255  23.361   3.567 -0.2908  0.0918  0.0320
    1DIPC   D2B21238  16.836  23.393   3.923  0.0144 -0.0063  0.3837
    1DIPC   D3B21239  16.736  23.669   4.168 -0.0609  0.2178  0.3109
    1DIPC   C4B21240  17.049  23.774   4.510 -0.2319 -0.1186 -0.2744
    1DIPC   NC321241   3.426  23.225   2.354 -0.0104  0.0811 -0.2731
    1DIPC   PO421242   3.593  22.961   2.537  0.0480 -0.3130 -0.0366
    1DIPC   GL121243   3.528  22.891   2.900 -0.1202  0.1594  0.0493
    1DIPC   GL221244   3.478  22.611   2.905  0.5277  0.3792 -0.1975
    1DIPC   C1A21245   3.323  23.042   3.340 -0.2304  0.0385 -0.0965
    1DIPC   D2A21246   3.125  23.344   3.654 -0.1360  0.3159 -0.0473
    1DIPC   D3A21247   3.323  23.705   3.772 -0.1253 -0.1447 -0.2581
    1DIPC   C4A21248   3.688  23.725   3.873 -0.1182 -0.1191  0.0556
    1DIPC   C1B21249   3.507  22.504   3.360  0.0591 -0.0612  0.2144
    1DIPC   D2B21250   3.675  22.455   3.760  0.0996  0.0058  0.0809
    1DIPC   D3B21251   3.445  22.797   3.748  0.0781 -0.0155 -0.0455
    1DIPC   C4B21252   3.017  22.860   3.730 -0.1555 -0.0296 -0.3962
    1DIPC   NC321253  14.270   2.420   3.976  0.0868 -0.2354  0.0409
    1DIPC   PO421254  13.910   2.577   4.218  0.0192 -0.1352  0.0558
    1DIPC   GL121255  14.093   2.163   4.462  0.0952  0.1672  0.1004
    1DIPC   GL221256  13.967   1.758   4.402  0.0315 -0.2977  0.3573
    1DIPC   C1A21257  14.331   2.165   4.863 -0.0254  0.2002  0.0804
    1DIPC   D2A21258  14.779   2.078   5.123  0.1900  0.0868 -0.1908
    1DIPC   D3A21259  14.756   2.558   5.332 -0.1254 -0.2419  0.2070
    1DIPC   C4A21260  14.299   2.707   5.435  0.1924 -0.2909 -0.3940
    1DIPC   C1B21261  13.944   1.749   4.818  0.4444 -0.1669  0.2213
    1DIPC   D2B21262  14.037   1.888   5.154  0.3770 -0.1898  0.1613
    1DIPC   D3B21263  14.292   2.145   5.441 -0.3930 -0.2768  0.0029
    1DIPC   C4B21264  14.167   2.320   5.779  0.0527 -0.0864 -0.1528
    1DIPC   NC321265  22.176   7.270   2.822  0.2217 -0.0196 -0.0143
    1DIPC   PO421266  22.544   7.083   3.018 -0.2034 -0.2674  0.0097
    1DIPC   GL121267  22.823   7.389   3.302  0.2033 -0.1219  0.1850
    1DIPC   GL221268  23.056   7.264   3.375 -0.3171 -0.0527  0.0020
    1DIPC   C1A21269  22.757   7.356   3.760 -0.1222 -0.2963 -0.1454
    1DIPC   D2A21270  22.639   7.122   4.088  0.0113 -0.3452 -0.0446
    1DIPC   D3A21271  22.705   6.820   3.734  0.0467 -0.1214 -0.0286
    1DIPC   C4A21272  22.714   6.367   3.809 -0.0544 -0.0859 -0.0803
    1DIPC   C1B21273  23.154   7.090   3.907 -0.4506  0.1422  0.1656
    1DIPC   D2B21274  23.422   7.207   4.145  0.0224  0.1685 -0.0273
    1DIPC   D3B21275  23.290   7.223   4.613 -0.0636 -0.0148  0.1733
    1DIPC   C4B21276  23.528   7.581   4.876  0.0026 -0.0584  0.1223
    1DIPC   NC321277  14.059   1.065   4.047 -0.0805  0.3122 -0.2281
    1DIPC   PO421278  14.125   0.691   3.942 -0.1028  0.0989 -0.1046
    1DIPC   GL121279  14.016   0.686   4.356  0.1153  0.1205 -0.0350
    1DIPC   GL221280  14.217   0.793   4.643  0.0632 -0.0099  0.1217
    1DIPC   C1A21281  13.636   0.842   4.657 -0.0987  0.1215 -0.1046
    1DIPC   D2A21282  13.248   0.998   4.873 -0.1708  0.2702 -0.0658
    1DIPC   D3A21283  13.598   0.997   5.112  0.0480 -0.0712 -0.0010
    1DIPC   C4A21284  13.902   0.675   5.037  0.0125 -0.0667 -0.2413
    1DIPC   C1B21285  14.681   0.728   4.825 -0.0072  0.0006 -0.2367
    1DIPC   D2B21286  14.977   0.752   5.121 -0.0938 -0.1361  0.0721
    1DIPC   D3B21287  14.796   0.661   5.463  0.1253  0.1259  0.1746
    1DIPC   C4B21288  14.887   0.221   5.669 -0.1062  0.0616 -0.1708
    1DIPC   NC321289  22.270   2.779   2.628  0.1525  0.0203  0.3929
    1DIPC   PO421290  22.201   2.404   2.831  0.0705  0.0178  0.1028
    1DIPC   GL121291  22.526   2.377   3.187  0.2960  0.1368 -0.0201
    1DIPC   GL221292  22.319   2.256   3.393  0.2696  0.2261 -0.2042
    1DIPC   C1A21293  22.773   2.153   3.661  0.0922 -0.1926  0.0043
    1DIPC   D2A21294  22.785   1.781   3.940 -0.4493 -0.0630  0.1458
    1DIPC   D3A21295  22.458   2.109   4.269  0.3264  0.3625 -0.0227
    1DIPC   C4A21296  22.457   2.614   4.347  0.0391  0.0162  0.1077
    1DIPC   C1B21297  22.657   2.613   3.609  0.2687  0.1328 -0.2891
    1DIPC   D2B21298  22.685   2.962   3.974 -0.4462 -0.1022  0.0696
    1DIPC   D3B21299  23.056   2.914   4.367 -0.1998  0.0770  0.0071
    1DIPC   C4B21300  23.455   2.894   4.266 -0.1514  0.1028 -0.1129
    1DIPC   NC321301  20.968  26.479   3.182 -0.0011  0.2696  0.1422
    1DIPC   PO421302  20.645  26.355   3.232 -0.0442  0.0604  0.0198
    1DIPC   GL121303  20.743  26.566   3.608  0.0999  0.1966  0.1344
    1DIPC   GL221304  21.083  26.708   3.567 -0.0987  0.0541 -0.3403
    1DIPC   C1A21305  20.884  26.594   4.026  0.1369  0.0610  0.2773
    1DIPC   D2A21306  20.953  26.899   4.382  0.2853  0.0733 -0.0245
    1DIPC   D3A21307  21.127  26.643   4.675  0.3699  0.0086 -0.0161
    1DIPC   C4A21308  21.339  26.528   4.982  0.2362 -0.0931 -0.2482
    1DIPC   C1B21309  21.479  26.677   3.728 -0.0170  0.3688 -0.2897
    1DIPC   D2B21310  21.773  26.348   3.776 -0.0812 -0.0690 -0.0205
    1DIPC   D3B21311  21.922  26.778   3.968 -0.0790  0.1363  0.1595
    1DIPC   C4B21312  21.606  27.151   3.939 -0.1265 -0.3478 -0.1472
    1DIPC   NC321313  25.526   2.802   2.278  0.0081 -0.2987  0.2352
    1DIPC   PO421314  25.627   2.476   2.623 -0.1172  0.1395 -0.1972
    1DIPC   GL121315  25.887   2.714   2.942  0.0546  0.2335 -0.3394
    1DIPC   GL221316  25.670   2.542   3.107  0.1445  0.3216  0.0450
    1DIPC   C1A21317  26.185   2.624   3.257 -0.1710  0.2396 -0.2454
    1DIPC   D2A21318  26.140   2.855   3.641  0.0008 -0.2989  0.3577
    1DIPC   D3A21319  26.299   2.707   4.028 -0.0957 -0.0834  0.1322
    1DIPC   C4A21320  26.434   2.957   4.340 -0.4407  0.0701  0.1909
    1DIPC   C1B21321  25.617   2.726   3.513  0.0091 -0.0813 -0.3433
    1DIPC   D2B21322  25.744   2.760   3.916 -0.0065  0.0136 -0.1235
    1DIPC   D3B21323  25.899   2.363   4.041  0.1437 -0.1222  0.1311
    1DIPC   C4B21324  26.268   2.148   3.759 -0.0407  0.0889  0.1964
    1DIPC   NC321325  20.396   2.813   2.296  0.0208 -0.1426 -0.1020
    1DIPC   PO421326  19.970   2.656   2.620  0.0218  0.2204 -0.0789
    1DIPC   GL121327  19.683   2.613   2.966 -0.0224  0.1183 -0.0775
    1DIPC   GL221328  19.982   2.363   3.140  0.2779 -0.0081 -0.0436
    1DIPC   C1A21329  19.717   2.609   3.540 -0.0583 -0.0260  0.1913
    1DIPC   D2A21330  20.037   2.670   3.746 -0.1836 -0.2087 -0.1107
    1DIPC   D3A21331  19.951   2.499   4.137  0.0418  0.0518 -0.1310
    1DIPC   C4A21332  20.185   2.592   4.464 -0.0781  0.0894 -0.1967
    1DIPC   C1B21333  20.304   2.614   3.331 -0.3918 -0.0648 -0.1065
    1DIPC   D2B21334  20.378   3.010   3.644  0.0961 -0.1764  0.0238
    1DIPC   D3B21335  20.312   3.060   4.075  0.0485 -0.0823  0.2467
    1DIPC   C4B21336  20.469   3.491   4.157  0.1458  0.0326 -0.2568
    1DIPC   NC321337  23.833   8.214   2.548  0.1115  0.3495 -0.0209
    1DIPC   PO421338  23.655   7.735   2.453  0.0562 -0.2716 -0.1845
    1DIPC   GL121339  23.706   7.914   2.896 -0.2117  0.1000 -0.3166
    1DIPC   GL221340  24.000   7.788   3.099 -0.0004  0.0516  0.1944
    1DIPC   C1A21341  23.688   8.101   3.393  0.0923 -0.0763 -0.1496
    1DIPC   D2A21342  23.632   8.206   3.790 -0.0173  0.1609  0.0895
    1DIPC   D3A21343  23.764   8.056   4.193 -0.2008  0.0549  0.1662
    1DIPC   C4A21344  23.936   8.183   4.513  0.0718  0.1016 -0.5110
    1DIPC   C1B21345  23.857   7.649   3.410 -0.1717  0.2408 -0.2524
    1DIPC   D2B21346  23.641   7.759   3.853  0.2166  0.2921 -0.1988
    1DIPC   D3B21347  24.102   7.642   3.820 -0.2563 -0.0722 -0.1556
    1DIPC   C4B21348  24.220   7.721   4.238  0.0553  0.0198 -0.2914
    1DIPC   NC321349  13.380   1.899   4.109  0.1855  0.0181  0.3735
    1DIPC   PO421350  13.468   1.625   4.344  0.0339  0.1980  0.0310
    1DIPC   GL121351  13.329   1.720   4.797  0.1098 -0.0675  0.1681
    1DIPC   GL221352  13.123   1.442   4.864 -0.0584 -0.1957  0.1289
    1DIPC   C1A21353  13.574   1.949   5.140 -0.1825 -0.1677  0.0545
    1DIPC   D2A21354  13.783   2.114   5.504  0.1672  0.1363 -0.0321
    1DIPC   D3A21355  13.879   2.436   5.279 -0.1510  0.1222 -0.1286
    1DIPC   C4A21356  13.825   2.252   4.908 -0.1491 -0.2553 -0.2949
    1DIPC   C1B21357  12.870   1.828   4.857 -0.1672  0.3786 -0.4656
    1DIPC   D2B21358  12.616   1.823   5.200  0.0365  0.1866 -0.1428
    1DIPC   D3B21359  12.613   2.030   5.504 -0.2423  0.2758  0.1561
    1DIPC   C4B21360  12.966   2.068   5.728 -0.0372 -0.1029 -0.1950
    1DIPC   NC321361   4.059  21.417   1.721 -0.4586 -0.2774 -0.0071
    1DIPC   PO421362   4.154  21.405   2.194  0.0678 -0.2929 -0.0176
    1DIPC   GL121363   4.274  21.416   2.665  0.0254 -0.0929  0.0680
    1DIPC   GL221364   4.674  21.346   2.811  0.3308 -0.0308 -0.0229
    1DIPC   C1A21365   4.202  21.392   3.088  0.2502 -0.2238 -0.0007
    1DIPC   D2A21366   3.991  21.236   3.537 -0.1449  0.0023  0.3253
    1DIPC   D3A21367   3.582  21.246   3.365 -0.1043  0.2379  0.2234
    1DIPC   C4A21368   3.206  21.566   3.515 -0.0349 -0.1283  0.0952
    1DIPC   C1B21369   4.767  21.523   3.145  0.0695  0.1508  0.0185
    1DIPC   D2B21370   4.937  21.928   3.273  0.1441  0.1409  0.1451
    1DIPC   D3B21371   5.094  21.610   3.517  0.0890  0.2093  0.0503
    1DIPC   C4B21372   5.513  21.542   3.433  0.2098  0.0899  0.1579
    1DIPC   NC321373  24.143  19.055   2.339  0.2324  0.0077  0.2472
    1DIPC   PO421374  23.944  18.713   2.436 -0.1364 -0.2011  0.1746
    1DIPC   GL121375  24.110  18.640   2.876 -0.0163  0.1963 -0.0035
    1DIPC   GL221376  24.056  18.310   2.930  0.1260  0.0525  0.1770
    1DIPC   C1A21377  24.094  18.576   3.338 -0.3378 -0.3498 -0.1018
    1DIPC   D2A21378  24.393  18.635   3.659 -0.1048  0.0078  0.2480
    1DIPC   D3A21379  24.482  18.961   3.916  0.0012 -0.2231  0.0889
    1DIPC   C4A21380  24.497  19.033   4.296 -0.1026 -0.0120  0.1710
    1DIPC   C1B21381  24.288  17.983   3.146  0.2479  0.1379  0.1050
    1DIPC   D2B21382  24.244  17.714   3.602  0.1818  0.0115 -0.1878
    1DIPC   D3B21383  24.621  17.558   3.479  0.0286  0.4078 -0.2069
    1DIPC   C4B21384  25.101  17.500   3.809 -0.3999  0.0396 -0.2990
    1DIPC   NC321385   3.740   0.629   3.375  0.2487  0.1120  0.1528
    1DIPC   PO421386   4.028   0.262   3.255  0.0698 -0.1118  0.2007
    1DIPC   GL121387   4.086   0.484   3.691 -0.0214 -0.1725  0.2482
    1DIPC   GL221388   3.928   0.165   3.750 -0.0060  0.0549  0.0984
    1DIPC   C1A21389   3.957   0.643   4.080  0.1335 -0.1419 -0.1086
    1DIPC   D2A21390   3.718   0.804   4.343 -0.2183 -0.0265  0.1907
    1DIPC   D3A21391   3.781   1.186   4.684  0.1754 -0.0947 -0.2963
    1DIPC   C4A21392   3.482   1.548   4.633  0.0261 -0.1793 -0.0120
    1DIPC   C1B21393   3.675  -0.134   4.043  0.2535  0.1398  0.1842
    1DIPC   D2B21394   3.715  -0.220   4.518 -0.3272 -0.2184 -0.3706
    1DIPC   D3B21395   4.088  -0.342   4.645  0.1077  0.1259 -0.0433
    1DIPC   C4B21396   4.351  -0.771   4.503  0.2580 -0.1700 -0.0673
    1DIPC   NC321397   1.065   3.505   2.579  0.0998  0.0962  0.1739
    1DIPC   PO421398   1.123   3.832   2.891  0.0209  0.2659 -0.0510
    1DIPC   GL121399   1.021   3.967   3.340 -0.0155 -0.3577 -0.0287
    1DIPC   GL221400   1.364   3.975   3.305  0.1132 -0.2022 -0.0194
    1DIPC   C1A21401   1.004   4.364   3.556  0.0216  0.1167  0.0141
    1DIPC   D2A21402   1.305   4.509   3.911 -0.2718  0.2919  0.2089
    1DIPC   D3A21403   1.496   4.383   3.594  0.1557 -0.0187  0.4225
    1DIPC   C4A21404   1.988   4.295   3.460 -0.0163  0.1385  0.2563
    1DIPC   C1B21405   1.565   3.530   3.370  0.1923 -0.0031 -0.1657
    1DIPC   D2B21406   1.525   3.146   3.565 -0.0868 -0.0283  0.0965
    1DIPC   D3B21407   1.711   3.485   3.863 -0.1131  0.2252 -0.3222
    1DIPC   C4B21408   2.044   3.734   3.598 -0.1222 -0.0569 -0.2109
    1DIPC   NC321409  18.086   0.152   3.601 -0.0814  0.0494 -0.0166
    1DIPC   PO421410  17.800   0.443   3.465 -0.2255 -0.2261 -0.0295
    1DIPC   GL121411  17.898   0.483   3.930  0.1141  0.1037  0.2890
    1DIPC   GL221412  18.245   0.366   4.010 -0.2425  0.0502  0.2810
    1DIPC   C1A21413  17.754   0.795   4.152  0.1965 -0.2600  0.1618
    1DIPC   D2A21414  17.777   1.246   4.391 -0.1197  0.1103  0.0393
    1DIPC   D3A21415  17.514   1.305   4.782  0.0082 -0.2289  0.1595
    1DIPC   C4A21416  17.547   1.611   5.099  0.2163  0.2347 -0.0559
    1DIPC   C1B21417  18.240   0.599   4.341  0.2052 -0.1732 -0.4526
    1DIPC   D2B21418  18.354   0.545   4.780 -0.1232 -0.1476 -0.2592
    1DIPC   D3B21419  18.554   0.605   5.200  0.4406 -0.1242 -0.1818
    1DIPC   C4B21420  18.813   0.280   5.419 -0.0331 -0.4862  0.0775
    1DIPC   NC321421   1.099  23.935   2.405 -0.0172 -0.1684  0.1155
    1DIPC   PO421422   1.334  23.439   2.472 -0.0013  0.1335 -0.1581
    1DIPC   GL121423   1.361  23.623   2.840  0.0316 -0.3481  0.0923
    1DIPC   GL221424   1.142  23.651   2.963 -0.1909  0.1088 -0.0780
    1DIPC   C1A21425   1.619  23.654   3.179  0.1114 -0.0317 -0.1791
    1DIPC   D2A21426   1.610  23.729   3.551 -0.3030  0.0126  0.0488
    1DIPC   D3A21427   1.155  23.643   3.579  0.1650 -0.1023 -0.1408
    1DIPC   C4A21428   1.009  23.624   3.946 -0.0479  0.2297 -0.0879
    1DIPC   C1B21429   0.819  23.938   3.207  0.2140  0.2722  0.4369
    1DIPC   D2B21430   0.344  23.837   3.277 -0.1436  0.0483 -0.1759
    1DIPC   D3B21431   0.683  23.453   3.332 -0.0079 -0.0166 -0.1508
    1DIPC   C4B21432   0.745  23.321   3.736  0.2056  0.0311  0.0843
    1DIPC   NC321433  22.654  24.103   3.310 -0.1841  0.4466  0.1156
    1DIPC   PO421434  23.053  24.259   3.282 -0.0627  0.1030  0.0554
    1DIPC   GL121435  23.146  24.220   3.698  0.0580  0.1570 -0.1096
    1DIPC   GL221436  23.074  24.503   3.846 -0.1297  0.1859  0.0744
    1DIPC   C1A21437  23.047  23.912   4.030 -0.1233  0.0336  0.1504
    1DIPC   D2A21438  22.828  23.746   4.304 -0.0127 -0.0545  0.0769
    1DIPC   D3A21439  22.662  24.014   4.538 -0.0045 -0.0096 -0.0395
    1DIPC   C4A21440  22.856  24.032   4.958  0.2649  0.1800 -0.2085
    1DIPC   C1B21441  22.932  24.351   4.272  0.0278  0.1427  0.0680
    1DIPC   D2B21442  22.890  24.539   4.743 -0.0675  0.0443  0.0461
    1DIPC   D3B21443  22.856  24.876   5.027  0.0913 -0.1421 -0.1003
    1DIPC   C4B21444  23.278  25.064   5.047  0.0483 -0.2788  0.1407
    1DIPC   NC321445  22.008  24.804   3.428 -0.3556 -0.0092  0.0302
    1DIPC   PO421446  22.167  24.324   3.342 -0.1925  0.3422 -0.0675
    1DIPC   GL121447  22.275  24.485   3.681 -0.1761 -0.1006  0.0528
    1DIPC   GL221448  21.991  24.519   3.858  0.5366 -0.0801 -0.1310
    1DIPC   C1A21449  22.605  24.694   3.947 -0.1754 -0.0060 -0.3771
    1DIPC   D2A21450  22.730  24.912   4.425 -0.0597  0.1423 -0.0433
    1DIPC   D3A21451  23.097  24.807   4.192 -0.1698  0.2273 -0.2262
    1DIPC   C4A21452  23.533  24.824   4.077 -0.2115 -0.0902  0.1770
    1DIPC   C1B21453  21.704  24.774   4.171 -0.1256 -0.0751 -0.0837
    1DIPC   D2B21454  21.560  24.619   4.514  0.3561  0.0250 -0.3936
    1DIPC   D3B21455  21.709  24.763   4.906 -0.0099  0.3433 -0.2078
    1DIPC   C4B21456  22.052  24.791   5.276  0.0972  0.0889 -0.1285
    1DIPC   NC321457  14.126   6.495   3.618 -0.2119  0.0613  0.1311
    1DIPC   PO421458  13.904   6.199   3.880 -0.0872 -0.1405 -0.1042
    1DIPC   GL121459  13.968   5.820   4.181  0.0298 -0.2879  0.0274
    1DIPC   GL221460  13.817   5.489   4.245 -0.1710 -0.0971  0.0635
    1DIPC   C1A21461  13.956   5.922   4.514  0.0747 -0.0765 -0.2385
    1DIPC   D2A21462  14.082   5.893   4.863  0.3773  0.0009 -0.1545
    1DIPC   D3A21463  13.885   5.561   5.153  0.0234 -0.0933  0.0106
    1DIPC   C4A21464  13.610   5.409   5.421 -0.1586 -0.2142  0.1114
    1DIPC   C1B21465  13.921   5.432   4.646 -0.1004  0.1293 -0.1128
    1DIPC   D2B21466  14.303   5.375   4.846 -0.1372  0.2648 -0.1094
    1DIPC   D3B21467  14.077   5.132   5.213  0.0886  0.0824  0.0353
    1DIPC   C4B21468  14.182   5.381   5.619  0.1972 -0.0155 -0.4431
    1DIPC   NC321469  24.849  21.922   3.342  0.0655  0.1345 -0.0939
    1DIPC   PO421470  25.009  22.169   3.668  0.2681 -0.0570  0.0414
    1DIPC   GL121471  25.185  22.179   4.008 -0.2675  0.2532  0.0657
    1DIPC   GL221472  25.277  22.479   4.207  0.2217 -0.3844  0.1809
    1DIPC   C1A21473  25.115  21.931   4.366 -0.0046 -0.0956 -0.0634
    1DIPC   D2A21474  25.172  21.737   4.804 -0.0458  0.0020  0.0366
    1DIPC   D3A21475  24.929  21.688   5.145  0.0392 -0.0501 -0.1575
    1DIPC   C4A21476  24.937  21.167   5.234 -0.1883 -0.0843  0.1785
    1DIPC   C1B21477  25.662  22.501   4.375  0.0891  0.0045 -0.1416
    1DIPC   D2B21478  26.140  22.611   4.327 -0.1833 -0.0589  0.0831
    1DIPC   D3B21479  25.924  22.753   4.064 -0.2069 -0.2935 -0.2500
    1DIPC   C4B21480  25.575  22.530   3.801  0.0774  0.0598  0.0222
    1DIPC   NC321481  23.503   9.142   2.642 -0.4352  0.0996  0.3421
    1DIPC   PO421482  23.974   9.117   2.604  0.1264 -0.0258  0.2530
    1DIPC   GL121483  23.856   9.015   3.099 -0.2860  0.0099  0.1275
    1DIPC   GL221484  24.188   8.880   3.204 -0.1771  0.2204 -0.1282
    1DIPC   C1A21485  23.750   9.078   3.480 -0.0103  0.0628  0.1867
    1DIPC   D2A21486  23.916   9.239   3.827 -0.0023 -0.2594 -0.1837
    1DIPC   D3A21487  23.763   9.173   4.108 -0.0687  0.1339  0.4081
    1DIPC   C4A21488  24.008   9.232   4.527  0.1209  0.0014  0.1332
    1DIPC   C1B21489  24.260   8.827   3.692  0.4200  0.1139 -0.1808
    1DIPC   D2B21490  24.199   8.936   4.085  0.0556  0.0293  0.0530
    1DIPC   D3B21491  24.396   9.254   4.088 -0.0018  0.0272 -0.1260
    1DIPC   C4B21492  24.282   9.568   3.866 -0.1567  0.0372 -0.1301
    1DIPC   NC321493  25.376  14.901   2.308 -0.0547 -0.0464 -0.0329
    1DIPC   PO421494  25.196  14.753   2.643 -0.2995  0.5341 -0.1108
    1DIPC   GL121495  25.169  14.760   3.121 -0.0925  0.1914 -0.1016
    1DIPC   GL221496  25.501  14.613   3.209  0.1679  0.2835 -0.1929
    1DIPC   C1A21497  25.176  15.019   3.338  0.0871  0.4453 -0.6081
    1DIPC   D2A21498  24.858  15.361   3.407 -0.2595 -0.0281 -0.3242
    1DIPC   D3A21499  25.227  15.410   3.663 -0.2129 -0.1766  0.1480
    1DIPC   C4A21500  25.280  15.566   4.146 -0.0162  0.1459  0.3235
    1DIPC   C1B21501  25.324  14.686   3.674 -0.1414  0.0882  0.0447
    1DIPC   D2B21502  25.503  14.554   4.028  0.2472  0.1681  0.0910
    1DIPC   D3B21503  25.253  14.245   3.873 -0.2002 -0.2976 -0.0304
    1DIPC   C4B21504  25.153  13.895   3.577 -0.1416  0.0114 -0.0511
    1DIPC   NC321505  15.739   1.847   3.249  0.2048  0.3952 -0.2153
    1DIPC   PO421506  15.415   2.026   3.516 -0.1169 -0.3660  0.1294
    1DIPC   GL121507  15.185   2.197   3.820  0.1532  0.0793  0.0339
    1DIPC   GL221508  15.477   2.319   3.952 -0.1233 -0.0687 -0.2361
    1DIPC   C1A21509  15.081   2.306   4.211  0.3971  0.1240 -0.1568
    1DIPC   D2A21510  14.700   2.134   4.488 -0.0087  0.0968  0.2164
    1DIPC   D3A21511  15.116   2.000   4.666 -0.0856  0.0885  0.2706
    1DIPC   C4A21512  15.233   1.858   5.062 -0.0468 -0.3724  0.1463
    1DIPC   C1B21513  15.457   2.007   4.254 -0.0644 -0.1528  0.5272
    1DIPC   D2B21514  15.527   1.706   4.511 -0.1551  0.2141  0.1680
    1DIPC   D3B21515  15.416   1.410   4.871 -0.0145 -0.1744 -0.0849
    1DIPC   C4B21516  15.227   1.069   4.864  0.0628 -0.1219 -0.0965
    1DIPC   NC321517  26.158  24.139   3.186 -0.0378  0.0553  0.1263
    1DIPC   PO421518  26.392  24.484   3.270  0.4842  0.1477  0.2072
    1DIPC   GL121519  26.351  24.322   3.666 -0.0116  0.1858  0.1837
    1DIPC   GL221520  26.100  24.169   3.645 -0.0437  0.2744  0.1829
    1DIPC   C1A21521  26.365  24.151   4.092  0.0857 -0.1189 -0.1164
    1DIPC   D2A21522  26.314  23.972   4.534 -0.1816 -0.2083 -0.0355
    1DIPC   D3A21523  25.959  24.056   4.753 -0.1144 -0.0831 -0.0656
    1DIPC   C4A21524  26.122  24.028   5.178 -0.3270 -0.1486  0.4569
    1DIPC   C1B21525  25.960  24.438   4.006  0.0213 -0.0786  0.3521
    1DIPC   D2B21526  25.624  24.762   4.037  0.0819 -0.1098 -0.0802
    1DIPC   D3B21527  25.619  24.598   3.635  0.0865 -0.1281 -0.4217
    1DIPC   C4B21528  25.196  24.637   3.569 -0.0660 -0.2571  0.1638
    1DIPC   NC321529  13.907   3.643   3.645 -0.1907 -0.1734 -0.0724
    1DIPC   PO421530  13.690   3.936   3.950  0.2677 -0.0786 -0.0820
    1DIPC   GL121531  14.031   3.753   4.169  0.2987  0.3953  0.0830
    1DIPC   GL221532  14.134   3.943   4.433  0.3210 -0.1945 -0.1126
    1DIPC   C1A21533  14.370   3.450   4.424  0.1219 -0.3032 -0.1387
    1DIPC   D2A21534  14.532   3.062   4.577 -0.0618  0.4117  0.0990
    1DIPC   D3A21535  14.257   3.032   4.828  0.1751 -0.2154 -0.1729
    1DIPC   C4A21536  13.972   2.879   4.931 -0.1418 -0.0677 -0.1305
    1DIPC   C1B21537  14.381   3.904   4.743 -0.1974 -0.1737  0.1203
    1DIPC   D2B21538  14.496   3.524   4.879  0.1751  0.0518  0.0130
    1DIPC   D3B21539  14.509   3.384   5.345 -0.1677  0.2678  0.2788
    1DIPC   C4B21540  14.891   3.579   5.508 -0.1110 -0.1337 -0.0223
    1DIPC   NC321541   1.151  19.345   2.790 -0.1082 -0.0284  0.3672
    1DIPC   PO421542   0.815  19.088   2.747 -0.0034 -0.1576  0.1308
    1DIPC   GL121543   0.782  19.246   3.174  0.0144 -0.0156  0.1223
    1DIPC   GL221544   1.112  19.325   3.372  0.1657  0.3079 -0.0582
    1DIPC   C1A21545   0.553  19.403   3.546  0.1973  0.1516 -0.0382
    1DIPC   D2A21546   0.383  19.647   3.839  0.0996  0.0598 -0.1854
    1DIPC   D3A21547   0.486  19.464   4.124 -0.0777 -0.2414 -0.2072
    1DIPC   C4A21548   0.571  19.126   4.354 -0.1048 -0.2803  0.0387
    1DIPC   C1B21549   1.064  19.525   3.721 -0.2064  0.2110  0.4154
    1DIPC   D2B21550   0.851  19.800   3.992 -0.0982  0.3170 -0.1124
    1DIPC   D3B21551   0.540  20.153   3.756  0.0860 -0.1106  0.1134
    1DIPC   C4B21552   0.871  20.427   3.619  0.2264  0.1766  0.0573
    1DIPC   NC321553  17.753   9.293   2.462 -0.1944 -0.0255 -0.1184
    1DIPC   PO421554  17.721   9.680   2.630 -0.0136  0.2751 -0.2913
    1DIPC   GL121555  17.822   9.711   3.110 -0.1126  0.0868  0.1361
    1DIPC   GL221556  18.002   9.834   3.193  0.3526 -0.0822 -0.0291
    1DIPC   C1A21557  17.610   9.738   3.530  0.1862  0.0348 -0.0282
    1DIPC   D2A21558  17.654   9.821   3.944 -0.0003  0.2037  0.0086
    1DIPC   D3A21559  17.742  10.140   4.265  0.3484  0.1309 -0.1718
    1DIPC   C4A21560  17.649  10.155   4.710 -0.1162  0.2711 -0.1064
    1DIPC   C1B21561  18.056   9.525   3.513  0.0280  0.2772  0.2763
    1DIPC   D2B21562  18.112   9.671   3.892  0.5325  0.1071 -0.1821
    1DIPC   D3B21563  17.873   9.405   4.109  0.4381 -0.3020  0.1635
    1DIPC   C4B21564  17.838   9.157   4.497  0.0662  0.0930  0.1198
    1DIPC   NC321565   0.013  17.675   2.349  0.2242  0.1454  0.1148
    1DIPC   PO421566   0.209  17.961   2.545  0.0275 -0.1252  0.0015
    1DIPC   GL121567   0.158  17.974   2.934 -0.0622  0.2661  0.0224
    1DIPC   GL221568  -0.037  17.985   3.179  0.1755 -0.4773 -0.0001
    1DIPC   C1A21569   0.431  17.892   3.307  0.0219  0.1812 -0.0834
    1DIPC   D2A21570   0.707  18.008   3.631 -0.1023  0.0945  0.0385
    1DIPC   D3A21571   0.357  17.900   3.805  0.1094 -0.0310  0.0804
    1DIPC   C4A21572   0.271  17.882   4.221  0.0378  0.1336 -0.1584
    1DIPC   C1B21573  -0.013  18.056   3.472  0.0584  0.1677  0.0450
    1DIPC   D2B21574  -0.122  18.344   3.817  0.1741  0.1100  0.1614
    1DIPC   D3B21575  -0.006  18.640   4.153  0.2455  0.0742  0.0879
    1DIPC   C4B21576   0.304  18.473   4.403  0.2872 -0.0206 -0.0048
    1DIPC   NC321577   4.252  20.515   2.303  0.0521 -0.2843 -0.1562
    1DIPC   PO421578   4.538  20.795   2.481 -0.0130  0.1999 -0.0755
    1DIPC   GL121579   4.394  20.600   2.791  0.1181 -0.1619  0.1233
    1DIPC   GL221580   4.357  20.936   2.914  0.0502 -0.1271  0.4043
    1DIPC   C1A21581   4.219  20.249   3.013 -0.1208 -0.0517 -0.1913
    1DIPC   D2A21582   4.009  19.917   3.336 -0.1238 -0.1521 -0.0804
    1DIPC   D3A21583   4.165  20.193   3.709 -0.1607  0.1045  0.0536
    1DIPC   C4A21584   4.181  19.972   4.097 -0.1118 -0.3074 -0.0537
    1DIPC   C1B21585   4.461  20.973   3.307 -0.4608  0.0613  0.3139
    1DIPC   D2B21586   4.372  20.959   3.724 -0.1075  0.1187 -0.0584
    1DIPC   D3B21587   4.352  20.541   3.965  0.0140 -0.0732  0.2184
    1DIPC   C4B21588   4.773  20.557   4.295 -0.1635 -0.1737  0.0503
    1DIPC   NC321589  27.431  19.080   2.609  0.0651  0.0972  0.0379
    1DIPC   PO421590  27.248  19.466   2.622  0.5261  0.0533 -0.0831
    1DIPC   GL121591  27.038  19.369   2.951 -0.0275 -0.0264 -0.0863
    1DIPC   GL221592  27.274  19.283   3.111 -0.1167  0.2447 -0.2777
    1DIPC   C1A21593  26.737  19.195   3.319 -0.0844  0.0934  0.1212
    1DIPC   D2A21594  26.385  18.986   3.498  0.1460 -0.0192 -0.1875
    1DIPC   D3A21595  26.681  18.648   3.879 -0.0521  0.3331 -0.0414
    1DIPC   C4A21596  26.699  18.780   4.318  0.4665  0.0081  0.1570
    1DIPC   C1B21597  27.525  19.525   3.371  0.1637  0.0077 -0.2259
    1DIPC   D2B21598  27.668  19.278   3.766 -0.0747 -0.2034  0.0702
    1DIPC   D3B21599  27.321  19.582   4.058 -0.2523  0.0730  0.2005
    1DIPC   C4B21600  27.224  19.893   3.780 -0.0109  0.0623  0.2632
    1DIPC   NC321601  22.165   1.108   2.550  0.0322  0.1711  0.1662
    1DIPC   PO421602  21.696   0.983   2.600  0.1335 -0.1440 -0.0392
    1DIPC   GL121603  21.824   0.855   3.061  0.3499 -0.1135 -0.1131
    1DIPC   GL221604  22.114   0.800   3.202  0.0056  0.0033 -0.1037
    1DIPC   C1A21605  21.537   0.845   3.432  0.1473 -0.0879 -0.2108
    1DIPC   D2A21606  21.402   1.207   3.518 -0.0817 -0.3355 -0.0391
    1DIPC   D3A21607  21.692   1.584   3.480 -0.1408 -0.0397  0.0968
    1DIPC   C4A21608  22.133   1.586   3.325  0.0026 -0.2909 -0.0328
    1DIPC   C1B21609  22.056   1.134   3.431 -0.1097 -0.0427  0.0444
    1DIPC   D2B21610  22.011   1.359   3.772  0.1707  0.1237  0.1946
    1DIPC   D3B21611  21.757   1.091   3.841 -0.1410  0.1915  0.1797
    1DIPC   C4B21612  21.743   0.768   4.131 -0.2361 -0.3264 -0.2035
    1DIPC   NC321613  27.402  14.453   1.695 -0.2905  0.1251  0.1386
    1DIPC   PO421614  27.585  14.115   1.757 -0.0433 -0.1277 -0.1480
    1DIPC   GL121615  27.476  14.155   2.224 -0.0613  0.0505  0.2537
    1DIPC   GL221616  27.820  14.014   2.324  0.2257 -0.0701  0.0243
    1DIPC   C1A21617  27.517  13.938   2.671 -0.0552 -0.0652  0.1997
    1DIPC   D2A21618  27.646  13.398   2.914  0.1000  0.1068  0.0748
    1DIPC   D3A21619  27.253  13.293   3.138 -0.0283 -0.0504 -0.0312
    1DIPC   C4A21620  26.919  13.619   3.141  0.0909 -0.2164 -0.2193
    1DIPC   C1B21621  27.791  14.320   2.681 -0.0092 -0.1828  0.2704
    1DIPC   D2B21622  27.710  14.219   3.146 -0.1894 -0.0235  0.0554
    1DIPC   D3B21623  27.873  14.628   3.071  0.1009 -0.1047 -0.0385
    1DIPC   C4B21624  28.207  14.623   2.734 -0.2396 -0.1372 -0.0060
    1DIPC   NC321625  26.385  27.304   2.911 -0.1141  0.0559  0.3033
    1DIPC   PO421626  26.523  27.671   3.044  0.0091  0.0311 -0.0716
    1DIPC   GL121627  26.397  27.416   3.473 -0.2377  0.0923 -0.1858
    1DIPC   GL221628  26.124  27.530   3.620 -0.1022  0.1173 -0.1141
    1DIPC   C1A21629  26.611  27.469   3.913  0.3380 -0.0213  0.3098
    1DIPC   D2A21630  27.002  27.636   4.040  0.1383  0.0826 -0.0938
    1DIPC   D3A21631  27.170  28.020   4.138  0.3269 -0.0857  0.2999
    1DIPC   C4A21632  27.342  28.056   4.572  0.0100  0.1139 -0.2391
    1DIPC   C1B21633  26.227  27.911   3.804  0.1581 -0.2498 -0.0676
    1DIPC   D2B21634  26.222  28.328   3.954  0.1915 -0.0766 -0.1113
    1DIPC   D3B21635  26.262  28.226   4.347  0.0091 -0.0173 -0.2353
    1DIPC   C4B21636  26.263  28.591   4.632 -0.1347  0.2073 -0.0546
    1DIPC   NC321637  12.625  29.014   4.389  0.1377 -0.0948 -0.1484
    1DIPC   PO421638  12.305  29.324   4.393 -0.1677 -0.1088 -0.2615
    1DIPC   GL121639  12.520  29.240   4.834 -0.0271 -0.0409  0.0167
    1DIPC   GL221640  12.281  29.015   4.861  0.0475 -0.0785  0.2225
    1DIPC   C1A21641  12.451  29.062   5.354 -0.0442  0.0395 -0.1474
    1DIPC   D2A21642  12.527  28.940   5.718 -0.0608  0.0793 -0.3632
    1DIPC   D3A21643  12.269  28.607   5.583 -0.1286  0.0074 -0.0143
    1DIPC   C4A21644  12.211  28.221   5.697 -0.3068  0.0014  0.1687
    1DIPC   C1B21645  11.985  28.944   5.232  0.3353  0.2331 -0.1645
    1DIPC   D2B21646  11.801  28.799   5.575 -0.0493  0.1863  0.2283
    1DIPC   D3B21647  11.460  28.986   5.851 -0.1294 -0.1987 -0.2486
    1DIPC   C4B21648  11.348  29.482   5.816  0.2301  0.1108 -0.1482
    1DIPC   NC321649  17.076   8.890   3.217 -0.0420  0.1918  0.1533
    1DIPC   PO421650  17.434   8.872   3.327 -0.0017 -0.1467  0.3290
    1DIPC   GL121651  17.337   8.685   3.612 -0.1100 -0.0692  0.2694
    1DIPC   GL221652  17.577   8.384   3.492  0.1399 -0.0081  0.1505
    1DIPC   C1A21653  17.257   8.623   4.054 -0.2428 -0.2001 -0.1139
    1DIPC   D2A21654  17.177   8.610   4.352 -0.3376  0.2006  0.0290
    1DIPC   D3A21655  17.292   8.910   4.567  0.1895 -0.1868  0.1262
    1DIPC   C4A21656  17.520   8.839   4.907  0.2874  0.0074 -0.3681
    1DIPC   C1B21657  17.410   8.200   3.841 -0.1132 -0.2851 -0.3563
    1DIPC   D2B21658  17.509   8.181   4.212  0.1218 -0.2545 -0.0246
    1DIPC   D3B21659  17.687   8.644   4.328  0.0642  0.0647  0.1895
    1DIPC   C4B21660  17.817   8.812   3.941  0.1290  0.2334 -0.0273
    1DIPC   NC321661   6.518  19.097   2.597  0.0164  0.1763  0.0988
    1DIPC   PO421662   6.778  19.387   2.821  0.0396 -0.1414 -0.1097
    1DIPC   GL121663   7.041  19.532   3.147 -0.0807  0.0183  0.0050
    1DIPC   GL221664   7.160  19.758   3.058  0.0278 -0.1328 -0.3380
    1DIPC   C1A21665   7.101  19.338   3.485  0.0282 -0.0563  0.0796
    1DIPC   D2A21666   6.903  19.024   3.764 -0.0009 -0.1940  0.0694
    1DIPC   D3A21667   6.786  19.262   4.155  0.0941  0.0415 -0.0855
    1DIPC   C4A21668   6.395  19.085   4.289 -0.0423 -0.2705  0.0540
    1DIPC   C1B21669   7.133  19.826   3.539  0.3699 -0.2017  0.0317
    1DIPC   D2B21670   7.052  19.669   3.906 -0.1275 -0.0854 -0.1852
    1DIPC   D3B21671   6.727  19.822   4.121 -0.0860  0.1952 -0.0328
    1DIPC   C4B21672   6.695  20.257   4.185  0.2150  0.1455  0.0083
    1DIPC   NC321673  21.796  10.975   2.842  0.1449  0.1925  0.0088
    1DIPC   PO421674  21.817  10.493   2.912  0.1515  0.0141 -0.1004
    1DIPC   GL121675  21.772  10.430   3.341  0.2339 -0.1905  0.0232
    1DIPC   GL221676  22.086  10.357   3.332  0.0621 -0.2181 -0.2779
    1DIPC   C1A21677  21.947  10.614   3.703 -0.0183 -0.2103  0.0329
    1DIPC   D2A21678  21.779  10.526   4.060 -0.2108 -0.0021  0.1554
    1DIPC   D3A21679  22.036  10.846   4.320  0.0099 -0.1536 -0.0119
    1DIPC   C4A21680  22.206  10.485   4.573  0.0227  0.1531  0.1210
    1DIPC   C1B21681  22.387  10.201   3.607  0.3055 -0.1068  0.0361
    1DIPC   D2B21682  22.431   9.794   3.921 -0.4761 -0.1048  0.2378
    1DIPC   D3B21683  22.660   9.894   4.361 -0.1422 -0.0247  0.1707
    1DIPC   C4B21684  22.691   9.605   4.746  0.0768 -0.0247 -0.1243
    1DIPC   NC321685  28.387  28.634   3.259  0.1493  0.1273 -0.0267
    1DIPC   PO421686  28.234  29.091   3.163 -0.0037  0.0588 -0.2186
    1DIPC   GL121687  28.312  29.106   3.555  0.0327 -0.1455 -0.0736
    1DIPC   GL221688  28.049  29.257   3.659  0.1612 -0.3701  0.3283
    1DIPC   C1A21689  28.331  28.822   3.907  0.1533 -0.1198 -0.2783
    1DIPC   D2A21690  28.593  28.710   4.253  0.0639  0.0308  0.1891
    1DIPC   D3A21691  28.316  28.761   4.523  0.0121 -0.2679  0.1184
    1DIPC   C4A21692  28.001  28.485   4.687 -0.0244 -0.0338  0.3369
    1DIPC   C1B21693  27.662  29.361   3.755  0.1137  0.1691  0.2306
    1DIPC   D2B21694  27.385  29.580   3.985 -0.0089 -0.0810 -0.4159
    1DIPC   D3B21695  27.510  29.844   4.277 -0.0817  0.4358 -0.3735
    1DIPC   C4B21696  27.184  30.196   4.412 -0.1994  0.1492 -0.2358
    1DIPC   NC321697   3.161  18.489   1.650 -0.0491 -0.1375  0.2846
    1DIPC   PO421698   3.221  18.548   2.028 -0.1787 -0.0539  0.1458
    1DIPC   GL121699   3.358  18.510   2.485 -0.1106 -0.0156 -0.1350
    1DIPC   GL221700   3.124  18.597   2.726 -0.0205 -0.3178  0.0066
    1DIPC   C1A21701   3.574  18.750   2.844 -0.2420  0.4249  0.0698
    1DIPC   D2A21702   4.048  18.907   2.780  0.0291 -0.0682  0.0845
    1DIPC   D3A21703   3.949  18.850   3.246 -0.0262  0.2845  0.0989
    1DIPC   C4A21704   3.577  18.520   3.323  0.1833  0.2252  0.0128
    1DIPC   C1B21705   3.093  18.421   3.157 -0.1316 -0.0095 -0.0402
    1DIPC   D2B21706   3.008  18.693   3.548  0.1631  0.1632  0.2503
    1DIPC   D3B21707   3.270  18.720   3.840  0.0920  0.1480 -0.0303
    1DIPC   C4B21708   3.646  18.832   3.687 -0.1081  0.0550  0.0165
    1DIPC   NC321709  24.046  20.055   2.909  0.1116 -0.0835 -0.1894
    1DIPC   PO421710  23.806  20.292   3.210 -0.2337 -0.4362 -0.0471
    1DIPC   GL121711  24.052  20.447   3.480 -0.0847  0.1243 -0.0288
    1DIPC   GL221712  23.991  20.228   3.705  0.2968  0.3161  0.1035
    1DIPC   C1A21713  23.981  20.695   3.915  0.4387 -0.0194 -0.0697
    1DIPC   D2A21714  23.753  20.943   4.255 -0.1149  0.2477 -0.2183
    1DIPC   D3A21715  24.086  20.833   4.435  0.0907  0.0263 -0.1190
    1DIPC   C4A21716  24.357  21.217   4.654 -0.1336  0.1972  0.1500
    1DIPC   C1B21717  24.053  20.190   4.077 -0.0508 -0.4668 -0.1736
    1DIPC   D2B21718  24.305  20.000   4.454  0.2185 -0.0269 -0.1079
    1DIPC   D3B21719  24.053  20.028   4.789  0.1261  0.4131  0.0919
    1DIPC   C4B21720  24.057  19.652   5.046  0.0399 -0.0058  0.0720
    1DIPC   NC321721   2.904   6.185   2.606  0.0212  0.1860  0.0268
    1DIPC   PO421722   2.685   6.031   2.919  0.0382 -0.1020  0.1156
    1DIPC   GL121723   3.016   6.110   3.231  0.0455  0.2389 -0.0559
    1DIPC   GL221724   3.243   6.183   3.020 -0.3271 -0.1192  0.0297
    1DIPC   C1A21725   3.055   6.103   3.703  0.1170 -0.2057  0.1309
    1DIPC   D2A21726   3.308   6.327   4.043 -0.2143  0.1152  0.1516
    1DIPC   D3A21727   3.492   5.988   3.961  0.1186 -0.1167 -0.2689
    1DIPC   C4A21728   3.575   5.577   4.293  0.3945  0.2285  0.0491
    1DIPC   C1B21729   3.138   6.603   3.332  0.1897  0.0226 -0.1504
    1DIPC   D2B21730   3.466   6.626   3.538  0.2284 -0.1889 -0.1115
    1DIPC   D3B21731   3.497   6.838   3.963  0.0608 -0.3598 -0.1416
    1DIPC   C4B21732   3.906   6.751   4.135  0.0211  0.1183 -0.0693
    1DIPC   NC321733  11.225  21.651   2.237  0.0640 -0.0513  0.2404
    1DIPC   PO421734  11.280  22.015   2.455 -0.2374 -0.0044  0.3376
    1DIPC   GL121735  11.275  22.269   2.866 -0.2437  0.0225  0.1029
    1DIPC   GL221736  11.575  22.485   2.989  0.1636  0.2177  0.0784
    1DIPC   C1A21737  11.090  22.381   3.237  0.1193 -0.1799  0.0327
    1DIPC   D2A21738  11.123  22.263   3.558 -0.2922  0.2482  0.1447
    1DIPC   D3A21739  11.267  21.828   3.710 -0.0451  0.0579  0.0202
    1DIPC   C4A21740  11.622  21.784   4.026 -0.1456  0.1864  0.0959
    1DIPC   C1B21741  11.642  22.515   3.516  0.0361 -0.3999  0.1978
    1DIPC   D2B21742  11.539  22.255   3.876  0.0598  0.2841  0.0726
    1DIPC   D3B21743  11.235  22.542   3.979 -0.0597  0.0957 -0.1548
    1DIPC   C4B21744  11.122  22.855   3.617  0.1601 -0.2492  0.1829
    1DIPC   NC321745  12.711   3.161   3.732  0.0909 -0.1336  0.2789
    1DIPC   PO421746  12.370   3.468   3.597 -0.2111 -0.2337  0.1502
    1DIPC   GL121747  12.152   3.658   3.993  0.1352  0.4048  0.0870
    1DIPC   GL221748  12.104   3.970   4.101 -0.0154 -0.2292  0.2153
    1DIPC   C1A21749  12.043   3.615   4.444 -0.0558  0.1291 -0.0266
    1DIPC   D2A21750  12.032   3.395   4.889 -0.3497 -0.3083 -0.2349
    1DIPC   D3A21751  12.240   3.036   4.920  0.2642 -0.1999  0.1718
    1DIPC   C4A21752  12.096   2.820   5.212 -0.2497 -0.0228  0.1620
    1DIPC   C1B21753  11.733   4.062   4.316  0.2343 -0.1497 -0.2986
    1DIPC   D2B21754  11.449   3.852   4.586  0.0857 -0.0618 -0.0658
    1DIPC   D3B21755  11.406   4.137   5.014  0.2884 -0.3396  0.0593
    1DIPC   C4B21756  11.569   4.592   5.096  0.3079  0.3960 -0.2477
    1DIPC   NC321757  17.338  27.787   3.407 -0.2463  0.0558 -0.1877
    1DIPC   PO421758  17.682  27.571   3.457 -0.1627 -0.0014 -0.0078
    1DIPC   GL121759  17.564  27.611   3.926 -0.2073  0.0872  0.0675
    1DIPC   GL221760  17.869  27.752   3.984 -0.2025 -0.4190 -0.2412
    1DIPC   C1A21761  17.504  27.837   4.341 -0.1169  0.1976 -0.0700
    1DIPC   D2A21762  17.243  27.933   4.688  0.2573  0.1874 -0.0013
    1DIPC   D3A21763  17.064  27.906   4.281  0.4278 -0.2644  0.0183
    1DIPC   C4A21764  16.928  27.638   4.008 -0.2959 -0.0630  0.0591
    1DIPC   C1B21765  18.016  27.699   4.344 -0.1053  0.3176 -0.0997
    1DIPC   D2B21766  18.537  27.732   4.510 -0.2614  0.3362 -0.0135
    1DIPC   D3B21767  18.893  27.685   4.661  0.0837  0.1584 -0.1209
    1DIPC   C4B21768  18.915  27.760   5.140 -0.0386  0.1935  0.0586
    1DIPC   NC321769  11.473  23.965   2.745 -0.3094 -0.1249  0.2339
    1DIPC   PO421770  11.251  23.644   2.849  0.2243 -0.0727  0.2104
    1DIPC   GL121771  11.068  23.910   3.072  0.0420  0.1263 -0.3031
    1DIPC   GL221772  10.903  23.720   3.296 -0.0268  0.4030  0.0473
    1DIPC   C1A21773  11.142  24.131   3.506 -0.0223 -0.0657  0.4494
    1DIPC   D2A21774  11.109  24.198   3.974  0.0893  0.0519 -0.1242
    1DIPC   D3A21775  11.469  24.545   4.130  0.0397  0.0051  0.0662
    1DIPC   C4A21776  11.841  24.271   4.182  0.4848  0.1318 -0.3407
    1DIPC   C1B21777  10.779  23.330   3.629 -0.2182 -0.3327 -0.0182
    1DIPC   D2B21778  11.144  23.215   4.005  0.1572  0.3668  0.2678
    1DIPC   D3B21779  10.919  23.372   4.241  0.0928  0.1545  0.0549
    1DIPC   C4B21780  10.933  23.536   4.653 -0.0661  0.4839 -0.0469
    1DIPC   NC321781   6.063  22.642   2.490 -0.0709 -0.4384  0.1787
    1DIPC   PO421782   6.606  22.682   2.434  0.0422  0.3062 -0.1012
    1DIPC   GL121783   6.542  22.461   2.835 -0.0383 -0.1689 -0.1714
    1DIPC   GL221784   6.186  22.357   2.887  0.1624 -0.0908  0.2458
    1DIPC   C1A21785   6.573  22.261   3.313 -0.2143  0.0591 -0.1791
    1DIPC   D2A21786   6.618  21.918   3.414  0.0539  0.1387  0.4465
    1DIPC   D3A21787   6.521  22.090   3.897  0.1552 -0.0161  0.3480
    1DIPC   C4A21788   6.220  21.959   4.268  0.0404 -0.3047 -0.2267
    1DIPC   C1B21789   6.101  22.077   3.282 -0.1750 -0.1954 -0.1196
    1DIPC   D2B21790   5.696  21.994   3.442  0.1519  0.1381  0.1012
    1DIPC   D3B21791   5.945  21.726   3.670  0.2178 -0.1568  0.0032
    1DIPC   C4B21792   6.155  21.461   3.469 -0.1944 -0.1071 -0.2774
    1DIPC   NC321793  19.565  26.047   3.226  0.2622  0.1970 -0.0700
    1DIPC   PO421794  19.401  25.674   3.238  0.1177  0.0278  0.1514
    1DIPC   GL121795  19.353  25.855   3.643  0.3488  0.0108  0.0428
    1DIPC   GL221796  19.423  26.179   3.732  0.0631 -0.0386  0.1168
    1DIPC   C1A21797  19.499  25.587   4.019 -0.2287 -0.2624  0.1901
    1DIPC   D2A21798  19.469  25.661   4.434 -0.0236  0.1386 -0.0967
    1DIPC   D3A21799  19.607  25.543   4.897  0.3070 -0.2425 -0.0254
    1DIPC   C4A21800  20.013  25.738   5.032  0.3313  0.2225 -0.1138
    1DIPC   C1B21801  19.230  26.024   4.162 -0.0038 -0.0242  0.3253
    1DIPC   D2B21802  19.134  26.040   4.551 -0.0705 -0.0715 -0.1068
    1DIPC   D3B21803  19.557  26.127   4.664  0.2154  0.0176 -0.0387
    1DIPC   C4B21804  19.761  26.165   5.027 -0.0186  0.2694 -0.3614
    1DIPC   NC321805  26.859  25.996   2.738 -0.0989 -0.2359 -0.0579
    1DIPC   PO421806  27.202  25.913   2.861 -0.0312 -0.0700 -0.0892
    1DIPC   GL121807  27.098  25.921   3.277  0.0647 -0.1494  0.2018
    1DIPC   GL221808  27.412  25.886   3.353 -0.0143  0.1137  0.1910
    1DIPC   C1A21809  26.746  26.141   3.493  0.0006  0.1386  0.2194
    1DIPC   D2A21810  26.703  26.446   3.907 -0.0075  0.2056 -0.2294
    1DIPC   D3A21811  26.452  26.629   4.196  0.0621  0.2199  0.1020
    1DIPC   C4A21812  26.497  26.890   4.524 -0.3643 -0.0640  0.1696
    1DIPC   C1B21813  27.405  25.531   3.652  0.0373 -0.0338 -0.4966
    1DIPC   D2B21814  27.711  25.409   3.997  0.4842  0.1899  0.0947
    1DIPC   D3B21815  27.729  25.199   4.435 -0.2196 -0.0045  0.1188
    1DIPC   C4B21816  27.510  25.547   4.601 -0.2151  0.2383 -0.0257
    1DIPC   NC321817  22.912   6.160   2.677  0.0645  0.3629  0.1155
    1DIPC   PO421818  22.741   5.925   2.968  0.3442  0.0596 -0.0028
    1DIPC   GL121819  22.522   5.688   3.358 -0.0745 -0.0613  0.2236
    1DIPC   GL221820  22.587   5.346   3.562  0.2110  0.1933  0.0353
    1DIPC   C1A21821  22.455   5.813   3.718 -0.2779 -0.1080 -0.2754
    1DIPC   D2A21822  22.488   5.776   4.226 -0.0546  0.1681  0.0232
    1DIPC   D3A21823  22.255   6.091   4.052 -0.0479  0.1385 -0.3659
    1DIPC   C4A21824  21.998   6.011   3.724 -0.1411  0.0655  0.0589
    1DIPC   C1B21825  22.879   5.524   3.858  0.0633 -0.0618 -0.1238
    1DIPC   D2B21826  22.901   5.912   3.975 -0.1007 -0.1185 -0.1913
    1DIPC   D3B21827  22.973   5.553   4.371  0.2556 -0.4113  0.2178
    1DIPC   C4B21828  22.701   5.253   4.193 -0.0688  0.0403 -0.1165
    1DIPC   NC321829   0.128  11.612   2.979 -0.2711  0.0331  0.0232
    1DIPC   PO421830  -0.058  11.202   3.084 -0.0308 -0.5625 -0.2247
    1DIPC   GL121831  -0.013  11.108   3.500  0.1822 -0.0881  0.0611
    1DIPC   GL221832  -0.350  11.167   3.601 -0.3340  0.1044 -0.0671
    1DIPC   C1A21833   0.148  11.168   3.960  0.4943  0.0340  0.0443
    1DIPC   D2A21834  -0.134  11.195   4.296  0.2194 -0.0988  0.0296
    1DIPC   D3A21835  -0.534  11.386   4.376  0.1760  0.1065  0.1104
    1DIPC   C4A21836  -0.586  11.449   4.818 -0.0820  0.1609 -0.0526
    1DIPC   C1B21837  -0.243  10.852   3.931  0.1762  0.0661 -0.2607
    1DIPC   D2B21838   0.044  10.758   4.313 -0.3770  0.0928 -0.2987
    1DIPC   D3B21839   0.518  10.817   4.239  0.1489 -0.1269  0.2320
    1DIPC   C4B21840   0.769  11.107   4.469  0.0246 -0.0059 -0.2605
    1DIPC   NC321841   4.649  10.710   2.490  0.0559 -0.0626 -0.0555
    1DIPC   PO421842   4.506  10.558   3.030  0.0390 -0.3122 -0.0817
    1DIPC   GL121843   4.289  10.400   3.433  0.0865  0.0723 -0.1646
    1DIPC   GL221844   4.400   9.985   3.581 -0.2021  0.0056 -0.0492
    1DIPC   C1A21845   4.037  10.483   3.801 -0.1544 -0.0347  0.0842
    1DIPC   D2A21846   4.092  10.619   4.234 -0.0271  0.1747  0.3847
    1DIPC   D3A21847   4.489  10.783   4.088  0.1989  0.0364 -0.3778
    1DIPC   C4A21848   4.558  10.481   3.933  0.3291  0.0477  0.2175
    1DIPC   C1B21849   4.649   9.924   3.884 -0.0186  0.1182 -0.1935
    1DIPC   D2B21850   4.830   9.516   4.034  0.2436  0.1104 -0.2178
    1DIPC   D3B21851   5.108   9.399   3.701 -0.0651  0.0216  0.1053
    1DIPC   C4B21852   5.608   9.414   3.632 -0.1031 -0.2939 -0.0639
    1DIPC   NC321853   0.991  17.812   2.232  0.0821 -0.2908  0.1461
    1DIPC   PO421854   1.428  17.685   2.320 -0.1515  0.0161  0.2116
    1DIPC   GL121855   1.526  17.704   2.819  0.1352  0.1776 -0.1838
    1DIPC   GL221856   1.337  17.885   3.118 -0.0158 -0.0060  0.0018
    1DIPC   C1A21857   1.841  17.655   3.121 -0.3534 -0.0868  0.0858
    1DIPC   D2A21858   2.160  17.969   3.329 -0.0021 -0.0061  0.0968
    1DIPC   D3A21859   2.293  18.322   3.531 -0.1783 -0.0163  0.1139
    1DIPC   C4A21860   2.434  18.246   3.971 -0.0421  0.0954  0.0442
    1DIPC   C1B21861   0.933  17.589   3.281  0.1961 -0.0115 -0.1041
    1DIPC   D2B21862   0.664  17.449   3.656  0.1049  0.3520  0.0777
    1DIPC   D3B21863   1.105  17.471   3.798  0.0459 -0.0019  0.0823
    1DIPC   C4B21864   1.404  17.549   3.504 -0.0962  0.0326  0.0724
    1DIPC   NC321865   4.112  26.324   2.917 -0.0976  0.3560  0.5094
    1DIPC   PO421866   3.875  25.924   2.985 -0.0101 -0.0645  0.3226
    1DIPC   GL121867   3.788  26.078   3.394 -0.0156  0.1721  0.0970
    1DIPC   GL221868   3.924  26.297   3.568  0.0403  0.1509  0.2661
    1DIPC   C1A21869   3.764  25.855   3.757 -0.1061  0.3055 -0.2150
    1DIPC   D2A21870   3.611  25.876   4.189  0.0417 -0.0103 -0.0553
    1DIPC   D3A21871   3.492  25.426   4.263  0.1213  0.2657  0.1268
    1DIPC   C4A21872   3.644  25.067   3.965 -0.0772 -0.1415  0.0236
    1DIPC   C1B21873   4.176  26.153   3.973  0.0822 -0.2263  0.1284
    1DIPC   D2B21874   4.345  25.871   4.374  0.0486  0.3762  0.1016
    1DIPC   D3B21875   4.416  25.553   4.083  0.2210 -0.1872 -0.0549
    1DIPC   C4B21876   4.072  25.314   3.824  0.0970  0.1509 -0.0942
    1DIPC   NC321877  28.222   0.254   2.974  0.2531 -0.1828 -0.1008
    1DIPC   PO421878  28.412   0.657   3.189 -0.0549  0.2582 -0.0031
    1DIPC   GL121879  28.726   0.648   3.468  0.2273 -0.3294 -0.0703
    1DIPC   GL221880  28.967   0.743   3.647 -0.0693 -0.0034  0.0983
    1DIPC   C1A21881  28.940   0.378   3.891 -0.1466 -0.2976 -0.0730
    1DIPC   D2A21882  28.659   0.251   4.226 -0.1367  0.0671  0.0120
    1DIPC   D3A21883  28.391   0.433   4.543 -0.2344  0.1678  0.0569
    1DIPC   C4A21884  28.600   0.607   4.888 -0.1521 -0.1057  0.2409
    1DIPC   C1B21885  29.366   0.773   4.007  0.0224 -0.0861  0.1186
    1DIPC   D2B21886  29.478   0.948   4.437  0.0982  0.0202 -0.1573
    1DIPC   D3B21887  29.142   0.917   4.681  0.0728 -0.0245 -0.0881
    1DIPC   C4B21888  29.336   0.797   5.034 -0.1290 -0.1323 -0.1328
    1DIPC   NC321889  13.682  27.149   4.088  0.0241 -0.0858  0.0974
    1DIPC   PO421890  13.910  27.435   4.379  0.1903 -0.1620  0.2578
    1DIPC   GL121891  14.150  27.551   4.797 -0.1350 -0.0281  0.0170
    1DIPC   GL221892  14.381  27.697   4.731  0.0838  0.0992  0.2311
    1DIPC   C1A21893  14.208  27.339   5.189  0.1299 -0.0345  0.0581
    1DIPC   D2A21894  14.269  27.056   5.566  0.0723 -0.1614  0.3705
    1DIPC   D3A21895  14.605  26.913   5.619 -0.4128  0.1416  0.0774
    1DIPC   C4A21896  14.681  26.577   5.667  0.0808  0.2217  0.0565
    1DIPC   C1B21897  14.315  27.868   5.130  0.0329 -0.1040 -0.0026
    1DIPC   D2B21898  14.184  28.127   5.463  0.2681 -0.0080 -0.0701
    1DIPC   D3B21899  14.470  28.320   5.696 -0.2076  0.2529  0.0488
    1DIPC   C4B21900  14.739  28.147   5.917 -0.2121 -0.2379  0.1123
    1DIPC   NC321901  12.505   3.944   3.762  0.0642 -0.1812 -0.1194
    1DIPC   PO421902  12.773   3.707   3.816 -0.0052  0.2956  0.1004
    1DIPC   GL121903  12.663   3.788   4.232  0.1398 -0.2330  0.0138
    1DIPC   GL221904  12.873   3.843   4.383 -0.1048 -0.1047  0.2006
    1DIPC   C1A21905  12.434   4.012   4.453  0.1927 -0.0366  0.2039
    1DIPC   D2A21906  12.107   4.366   4.444 -0.4987  0.1190 -0.0533
    1DIPC   D3A21907  12.209   4.777   4.270 -0.0751  0.3423 -0.1870
    1DIPC   C4A21908  12.163   5.206   4.352  0.1848  0.1812  0.2747
    1DIPC   C1B21909  12.805   3.799   4.768  0.1850  0.1024  0.2507
    1DIPC   D2B21910  12.986   3.832   5.124  0.1933 -0.2844 -0.0686
    1DIPC   D3B21911  13.248   3.662   5.436  0.1816  0.0966 -0.0193
    1DIPC   C4B21912  13.246   3.552   5.898 -0.0690 -0.2273 -0.0922
    1DIPC   NC321913   7.413   4.997   3.055  0.2409  0.1859 -0.0024
    1DIPC   PO421914   7.328   4.617   3.291  0.3052 -0.2415 -0.1778
    1DIPC   GL121915   7.126   4.338   3.555  0.2810  0.0316  0.3350
    1DIPC   GL221916   6.862   4.416   3.428 -0.0980  0.1909 -0.2771
    1DIPC   C1A21917   6.826   4.122   3.823 -0.0249 -0.3371 -0.3313
    1DIPC   D2A21918   6.492   3.976   4.175 -0.1175 -0.0412 -0.0313
    1DIPC   D3A21919   6.755   4.383   4.418 -0.0436 -0.3178 -0.0457
    1DIPC   C4A21920   7.150   4.568   4.515 -0.1291 -0.2431  0.1357
    1DIPC   C1B21921   6.488   4.273   3.508  0.2581  0.1847  0.1646
    1DIPC   D2B21922   6.084   4.151   3.801 -0.0018  0.2070  0.4311
    1DIPC   D3B21923   5.873   4.121   4.184  0.0618  0.0735  0.1914
    1DIPC   C4B21924   5.425   3.984   4.185  0.1685  0.1363  0.0664
    1DIPC   NC321925   3.686  28.097   2.941  0.2768 -0.2649 -0.0934
    1DIPC   PO421926   3.194  28.292   2.847  0.0809 -0.2521  0.1236
    1DIPC   GL121927   3.381  28.391   3.288 -0.1810  0.0194  0.0484
    1DIPC   GL221928   3.313  28.079   3.536 -0.0804  0.2585 -0.0272
    1DIPC   C1A21929   3.115  28.707   3.456  0.0073  0.0605 -0.0580
    1DIPC   D2A21930   3.086  28.752   3.904  0.3564 -0.1914  0.1571
    1DIPC   D3A21931   3.427  28.817   4.071  0.3542 -0.0653  0.4475
    1DIPC   C4A21932   3.254  29.179   4.339 -0.3168  0.0875 -0.3736
    1DIPC   C1B21933   3.244  27.704   3.742 -0.0637  0.3174  0.2680
    1DIPC   D2B21934   3.057  27.758   4.054  0.1902  0.1254  0.0555
    1DIPC   D3B21935   3.001  28.195   3.978 -0.0361 -0.0997 -0.3009
    1DIPC   C4B21936   3.298  28.388   4.219 -0.0992 -0.2458 -0.0927
    1DIPC   NC321937   1.728  18.068   2.602 -0.0302  0.3207 -0.2598
    1DIPC   PO421938   1.251  18.194   2.734  0.1796  0.0894  0.2056
    1DIPC   GL121939   1.116  18.399   3.057 -0.0062 -0.0618  0.0482
    1DIPC   GL221940   1.031  18.272   3.336  0.0587 -0.0974 -0.1970
    1DIPC   C1A21941   1.288  18.667   3.396 -0.1005  0.0091  0.1096
    1DIPC   D2A21942   1.359  18.587   3.845  0.2575  0.0067 -0.0264
    1DIPC   D3A21943   0.916  18.403   3.847 -0.1396  0.0964  0.0138
    1DIPC   C4A21944   0.655  18.688   4.137  0.0548 -0.0779  0.1160
    1DIPC   C1B21945   1.193  18.000   3.644  0.0969  0.1689 -0.0585
    1DIPC   D2B21946   1.392  17.909   3.935  0.3721  0.3247  0.3040
    1DIPC   D3B21947   0.901  17.850   4.057 -0.1763  0.0096  0.0273
    1DIPC   C4B21948   0.725  18.170   4.246 -0.3578 -0.1259 -0.0530
    1DIPC   NC321949  11.321   5.076   3.440 -0.0801  0.1724  0.0927
    1DIPC   PO421950  11.724   5.150   3.491 -0.0313 -0.1064  0.0407
    1DIPC   GL121951  11.570   4.966   3.914  0.0881 -0.5670  0.1057
    1DIPC   GL221952  11.191   5.097   3.899  0.0888 -0.2105  0.0360
    1DIPC   C1A21953  11.746   4.928   4.320  0.0390  0.1556  0.0269
    1DIPC   D2A21954  11.718   5.225   4.646 -0.0688 -0.3136  0.0148
    1DIPC   D3A21955  11.881   4.943   4.936 -0.1166 -0.0849 -0.2051
    1DIPC   C4A21956  11.952   4.740   5.285  0.4282 -0.2824  0.0924
    1DIPC   C1B21957  11.326   5.360   4.261 -0.1966  0.3978  0.0716
    1DIPC   D2B21958  11.529   5.702   4.337 -0.1829  0.1139 -0.2003
    1DIPC   D3B21959  11.200   5.686   4.737 -0.1505 -0.1901 -0.1488
    1DIPC   C4B21960  11.018   5.594   5.099  0.3969 -0.2069  0.1308
    1DIPC   NC321961   5.079  28.178   2.836 -0.0747 -0.1485  0.1009
    1DIPC   PO421962   4.980  28.294   3.226 -0.0867 -0.5040 -0.0725
    1DIPC   GL121963   4.857  28.079   3.633  0.1198  0.0145  0.0909
    1DIPC   GL221964   4.607  28.203   3.750 -0.0035  0.1614 -0.1820
    1DIPC   C1A21965   5.051  28.052   4.005  0.2041 -0.0475  0.1873
    1DIPC   D2A21966   5.369  28.087   4.177  0.1444 -0.4085 -0.1078
    1DIPC   D3A21967   5.553  28.306   4.560 -0.0230  0.0286 -0.1017
    1DIPC   C4A21968   5.429  28.183   5.022  0.2077  0.1363 -0.0909
    1DIPC   C1B21969   4.701  28.501   4.038 -0.1253 -0.1092  0.2650
    1DIPC   D2B21970   5.038  28.640   4.289 -0.1843  0.1755  0.2002
    1DIPC   D3B21971   4.712  28.865   4.380  0.0183 -0.1005 -0.0477
    1DIPC   C4B21972   4.567  28.995   4.734 -0.3963  0.0261  0.0854
    1DIPC   NC321973  24.902  27.864   2.329 -0.2012 -0.2539 -0.1046
    1DIPC   PO421974  25.077  28.006   2.628 -0.3042  0.4134  0.0129
    1DIPC   GL121975  25.078  27.993   3.036 -0.0445  0.1697 -0.3262
    1DIPC   GL221976  24.826  27.898   3.249  0.2979 -0.0880  0.0854
    1DIPC   C1A21977  25.243  28.114   3.476 -0.1618 -0.1241 -0.3962
    1DIPC   D2A21978  25.071  28.116   3.855 -0.3844 -0.1251 -0.2217
    1DIPC   D3A21979  25.036  27.983   4.214 -0.1617  0.1307 -0.1637
    1DIPC   C4A21980  25.207  27.811   4.591 -0.0340  0.1032 -0.1624
    1DIPC   C1B21981  24.593  28.012   3.659 -0.2672 -0.2006  0.1639
    1DIPC   D2B21982  24.567  28.084   4.139 -0.0281 -0.2127  0.2299
    1DIPC   D3B21983  24.856  28.451   4.314  0.1823  0.0060 -0.0431
    1DIPC   C4B21984  24.800  28.984   4.203 -0.0600 -0.1044  0.1495
    1DIPC   NC321985  29.090  10.153   2.771  0.2030  0.0317 -0.0783
    1DIPC   PO421986  28.933   9.694   2.630 -0.0825 -0.1622 -0.1390
    1DIPC   GL121987  28.948   9.373   3.025 -0.0927  0.2757 -0.0023
    1DIPC   GL221988  29.214   9.168   3.057 -0.1594 -0.3230  0.0908
    1DIPC   C1A21989  28.932   9.426   3.478 -0.2352  0.0568 -0.0063
    1DIPC   D2A21990  29.149   9.481   3.862  0.0276  0.0973 -0.0262
    1DIPC   D3A21991  29.584   9.355   3.925 -0.0770  0.0020 -0.1350
    1DIPC   C4A21992  29.943   9.143   3.662  0.1386 -0.1031 -0.2633
    1DIPC   C1B21993  29.434   8.996   3.389 -0.1255 -0.4106 -0.0481
    1DIPC   D2B21994  29.366   8.866   3.784 -0.0494 -0.1492 -0.2396
    1DIPC   D3B21995  29.728   8.686   3.779  0.1996  0.0363  0.1780
    1DIPC   C4B21996  30.075   8.848   4.079 -0.2563  0.1899 -0.0979
    1DIPC   NC321997  23.112  17.450   2.349  0.0906  0.3151  0.1104
    1DIPC   PO421998  23.396  17.155   2.448  0.1313  0.2257 -0.0756
    1DIPC   GL121999  23.375  17.140   2.872 -0.1789 -0.2362  0.2581
    1DIPC   GL222000  23.041  17.340   2.830 -0.2209  0.2937  0.0899
    1DIPC   C1A22001  23.300  17.237   3.275  0.2962 -0.1651  0.1155
    1DIPC   D2A22002  23.415  17.063   3.717 -0.0652  0.3362  0.0216
    1DIPC   D3A22003  23.098  16.793   3.926  0.0719 -0.2993 -0.0209
    1DIPC   C4A22004  22.676  16.747   3.935 -0.0460  0.0705  0.2598
    1DIPC   C1B22005  22.930  16.953   3.000 -0.1557 -0.0411 -0.1377
    1DIPC   D2B22006  22.836  16.496   2.900 -0.0935  0.1169 -0.0462
    1DIPC   D3B22007  23.197  16.393   2.975 -0.0706 -0.2557  0.0616
    1DIPC   C4B22008  23.331  16.749   3.235 -0.2256 -0.1125  0.0412
    1DIPC   NC322009   9.967  25.638   2.541 -0.0604 -0.0959  0.0245
    1DIPC   PO422010   9.740  25.367   2.909 -0.2084 -0.3069  0.3542
    1DIPC   GL122011   9.602  25.258   3.352 -0.2735  0.0336 -0.1941
    1DIPC   GL222012   9.810  25.442   3.480 -0.1880 -0.0263 -0.0752
    1DIPC   C1A22013   9.416  24.938   3.683 -0.1081  0.1128  0.1185
    1DIPC   D2A22014   9.193  24.627   3.959  0.3432  0.2688  0.3286
    1DIPC   D3A22015   8.942  24.890   4.261 -0.2421 -0.0623  0.0869
    1DIPC   C4A22016   8.605  25.087   4.154 -0.1504 -0.1668 -0.0400
    1DIPC   C1B22017   9.754  25.299   3.916  0.2485  0.0523 -0.1289
    1DIPC   D2B22018   9.770  25.263   4.406  0.1829  0.0920  0.1644
    1DIPC   D3B22019   9.525  25.452   4.692  0.1795 -0.2517 -0.1541
    1DIPC   C4B22020   9.206  25.175   4.627 -0.0352  0.2624  0.1294
    1DIPC   NC322021  23.729   1.542   2.651 -0.0859 -0.1805 -0.1242
    1DIPC   PO422022  23.738   1.169   2.670  0.0412 -0.1795 -0.3756
    1DIPC   GL122023  24.010   1.166   3.065  0.2483 -0.1169 -0.0919
    1DIPC   GL222024  24.086   1.473   2.998  0.0313  0.2165 -0.1691
    1DIPC   C1A22025  24.240   1.172   3.411 -0.1329 -0.0774  0.2012
    1DIPC   D2A22026  24.403   1.112   3.826  0.2391 -0.5551  0.4087
    1DIPC   D3A22027  24.753   1.013   3.868 -0.0750  0.1965  0.1820
    1DIPC   C4A22028  25.050   0.689   3.894 -0.0342  0.0916  0.1165
    1DIPC   C1B22029  23.897   1.741   3.351  0.3479 -0.0649 -0.1505
    1DIPC   D2B22030  23.777   2.149   3.362  0.1425 -0.0193  0.2268
    1DIPC   D3B22031  23.361   2.092   3.379  0.0406 -0.1351  0.0857
    1DIPC   C4B22032  23.084   1.731   3.505  0.1893  0.2715  0.4693
    1DIPC   NC322033  17.218  10.498   2.263  0.1259 -0.1315  0.2513
    1DIPC   PO422034  16.949  10.596   2.483 -0.1237 -0.2140 -0.0148
    1DIPC   GL122035  16.816  10.538   2.904  0.0153 -0.1510  0.1686
    1DIPC   GL222036  16.987  10.808   3.014  0.3128 -0.1339 -0.3249
    1DIPC   C1A22037  16.666  10.469   3.306 -0.1742  0.0410 -0.2198
    1DIPC   D2A22038  16.598  10.156   3.548 -0.2932  0.0635 -0.1076
    1DIPC   D3A22039  16.546   9.850   3.370 -0.1824  0.0917 -0.0472
    1DIPC   C4A22040  16.370   9.561   3.645  0.3281 -0.0720  0.3189
    1DIPC   C1B22041  17.143  10.764   3.345  0.0884  0.1942 -0.2641
    1DIPC   D2B22042  17.137  10.673   3.746 -0.1373 -0.0667  0.0318
    1DIPC   D3B22043  17.146  11.057   4.058 -0.2196 -0.1490 -0.0418
    1DIPC   C4B22044  17.248  11.003   4.494 -0.1064 -0.1631  0.0108
    1DIPC   NC322045   1.757  20.749   2.252 -0.3170  0.1031  0.3622
    1DIPC   PO422046   1.601  20.297   2.320 -0.2997  0.1140 -0.1272
    1DIPC   GL122047   1.641  20.401   2.765 -0.2656 -0.0846  0.1307
    1DIPC   GL222048   2.018  20.536   2.657 -0.0548  0.2548  0.0493
    1DIPC   C1A22049   1.320  20.596   3.044  0.2066 -0.1896  0.1897
    1DIPC   D2A22050   0.870  20.561   3.099  0.0019  0.0979 -0.1378
    1DIPC   D3A22051   0.765  20.968   3.104  0.0549  0.2631  0.1336
    1DIPC   C4A22052   0.732  20.914   3.530 -0.2484 -0.2070 -0.0226
    1DIPC   C1B22053   2.188  20.329   3.022 -0.0096 -0.0258  0.1159
    1DIPC   D2B22054   2.457  20.189   3.391  0.0937 -0.1619 -0.1143
    1DIPC   D3B22055   2.473  20.620   3.564 -0.2862  0.2140  0.0837
    1DIPC   C4B22056   2.682  20.902   3.251  0.0484  0.0483 -0.0382
    1DIPC   NC322057  28.017  14.875   1.490 -0.0663  0.1138 -0.1425
    1DIPC   PO422058  27.787  14.878   1.797  0.0735  0.0780  0.0663
    1DIPC   GL122059  27.455  14.941   1.990  0.5530 -0.3237 -0.0677
    1DIPC   GL222060  27.411  15.375   2.017  0.1481  0.1009 -0.0359
    1DIPC   C1A22061  27.478  14.715   2.411 -0.0221  0.1114  0.0168
    1DIPC   D2A22062  27.288  14.461   2.820 -0.2868 -0.0770 -0.1967
    1DIPC   D3A22063  27.282  14.514   3.260  0.2364  0.2049  0.0575
    1DIPC   C4A22064  27.407  14.209   3.523 -0.0488 -0.0621 -0.0511
    1DIPC   C1B22065  27.667  15.192   2.304  0.1937 -0.2798 -0.1281
    1DIPC   D2B22066  27.965  15.025   2.567  0.0375 -0.3947  0.0210
    1DIPC   D3B22067  27.652  14.940   2.817  0.3588 -0.0864 -0.0093
    1DIPC   C4B22068  27.281  14.974   2.881  0.4652  0.3082  0.1318
    1DIPC   NC322069  17.561   4.438   3.543  0.0028 -0.3365  0.2100
    1DIPC   PO422070  17.621   4.137   3.155  0.4323  0.1624 -0.3315
    1DIPC   GL122071  17.649   3.937   3.644  0.3681  0.2514 -0.2301
    1DIPC   GL222072  17.506   3.817   3.855  0.0260  0.1289 -0.1295
    1DIPC   C1A22073  17.995   4.081   3.973  0.1633  0.1350  0.0964
    1DIPC   D2A22074  17.921   4.269   4.448  0.0453  0.0649  0.1092
    1DIPC   D3A22075  18.029   4.686   4.602  0.2191 -0.0521  0.1331
    1DIPC   C4A22076  18.011   5.002   4.398 -0.0672  0.0236 -0.1618
    1DIPC   C1B22077  17.660   3.895   4.225  0.0254 -0.0079 -0.0459
    1DIPC   D2B22078  17.760   3.656   4.634  0.2182  0.2134 -0.2460
    1DIPC   D3B22079  17.665   3.820   5.011  0.0876 -0.1110  0.0663
    1DIPC   C4B22080  17.236   3.848   5.206 -0.2366 -0.0991 -0.0959
    1DIPC   NC322081  28.749  20.857   2.685  0.3545 -0.0099  0.1554
    1DIPC   PO422082  28.661  21.388   2.590  0.0525  0.0865 -0.2302
    1DIPC   GL122083  28.809  21.130   3.098 -0.0856 -0.0014  0.1018
    1DIPC   GL222084  29.084  21.133   3.168 -0.1694  0.0721 -0.2520
    1DIPC   C1A22085  28.558  20.778   3.243  0.0944  0.3398 -0.1129
    1DIPC   D2A22086  28.162  20.641   3.411  0.0092 -0.1064 -0.0211
    1DIPC   D3A22087  28.307  20.286   3.679  0.0181  0.1599 -0.0226
    1DIPC   C4A22088  28.211  19.968   4.079 -0.2053 -0.0134 -0.2423
    1DIPC   C1B22089  29.389  21.487   3.219  0.0874 -0.3647 -0.1091
    1DIPC   D2B22090  29.419  21.928   3.382 -0.1413 -0.0334 -0.0654
    1DIPC   D3B22091  29.330  21.510   3.716  0.1287  0.0612 -0.1853
    1DIPC   C4B22092  29.021  21.180   3.667 -0.1458 -0.2157  0.1448
    1DIPC   NC322093  17.671  26.254   3.406 -0.0510  0.0866  0.0131
    1DIPC   PO422094  18.177  26.261   3.439  0.1456  0.0932  0.0122
    1DIPC   GL122095  17.900  26.238   3.863 -0.0040 -0.0852 -0.1631
    1DIPC   GL222096  17.712  26.596   3.922  0.0293 -0.2319 -0.1257
    1DIPC   C1A22097  17.822  26.295   4.226  0.0484 -0.0630  0.1586
    1DIPC   D2A22098  17.673  26.276   4.589  0.4149  0.2379 -0.1515
    1DIPC   D3A22099  17.976  26.299   4.868 -0.0258  0.0364 -0.0548
    1DIPC   C4A22100  17.987  25.972   5.121  0.0002 -0.1124  0.0330
    1DIPC   C1B22101  17.481  26.706   4.276 -0.0171  0.1893 -0.0067
    1DIPC   D2B22102  17.166  26.951   4.520  0.4825 -0.1583 -0.0953
    1DIPC   D3B22103  17.410  26.874   4.859  0.1065  0.1059  0.2634
    1DIPC   C4B22104  17.433  27.191   5.201 -0.3382  0.0970 -0.0989
    1DIPC   NC322105   2.297   1.183   2.779 -0.1365 -0.0416 -0.0474
    1DIPC   PO422106   2.377   0.851   3.159 -0.0402  0.2101  0.0079
    1DIPC   GL122107   2.254   0.581   3.505 -0.1335 -0.2161 -0.0404
    1DIPC   GL222108   1.915   0.663   3.556 -0.2524 -0.0080 -0.1551
    1DIPC   C1A22109   2.094   0.418   3.920 -0.1359 -0.0726  0.0009
    1DIPC   D2A22110   1.903   0.222   4.133 -0.0862  0.2089  0.2784
    1DIPC   D3A22111   2.266   0.201   4.408 -0.1848  0.0060 -0.0804
    1DIPC   C4A22112   2.519   0.225   4.833  0.3884  0.1180 -0.2692
    1DIPC   C1B22113   2.203   0.943   3.832 -0.1113 -0.0203  0.1216
    1DIPC   D2B22114   2.576   1.136   3.862  0.0377 -0.0756 -0.0849
    1DIPC   D3B22115   2.233   1.316   4.095  0.1740  0.2833 -0.4249
    1DIPC   C4B22116   2.325   1.761   4.097 -0.0729 -0.0909 -0.2839
    1DIPC   NC322117  22.356  26.783   2.755 -0.0225  0.1805 -0.1818
    1DIPC   PO422118  22.687  26.900   2.853  0.1895  0.1272  0.1035
    1DIPC   GL122119  22.984  26.763   3.085 -0.3097 -0.2453 -0.1012
    1DIPC   GL222120  22.928  26.506   3.296  0.2213 -0.1252  0.0253
    1DIPC   C1A22121  23.228  27.067   3.303  0.0773 -0.1640 -0.3064
    1DIPC   D2A22122  23.188  27.475   3.398  0.0969 -0.3460  0.2199
    1DIPC   D3A22123  23.414  27.553   3.722 -0.0663  0.1107 -0.2059
    1DIPC   C4A22124  23.656  27.571   4.023  0.3074  0.1951  0.2354
    1DIPC   C1B22125  22.772  26.440   3.688  0.0188 -0.1269  0.2479
    1DIPC   D2B22126  22.805  26.351   4.246  0.0882 -0.1608 -0.1297
    1DIPC   D3B22127  22.670  26.241   4.644 -0.0902  0.1804 -0.0826
    1DIPC   C4B22128  22.398  26.170   4.996  0.1800 -0.1488  0.3130
    1DIPC   NC322129  26.193  13.558   1.769  0.3503  0.0127 -0.0444
    1DIPC   PO422130  25.935  13.041   1.937 -0.3072 -0.0983  0.0620
    1DIPC   GL122131  25.902  12.919   2.365  0.0795 -0.3030  0.1754
    1DIPC   GL222132  25.720  12.684   2.498 -0.0215 -0.2126  0.0228
    1DIPC   C1A22133  25.748  13.100   2.751  0.2287 -0.2099  0.3428
    1DIPC   D2A22134  25.605  13.061   3.177  0.1264 -0.0085  0.1512
    1DIPC   D3A22135  25.727  13.212   3.593  0.3043 -0.0789  0.0381
    1DIPC   C4A22136  25.564  13.536   3.645 -0.0993 -0.0605  0.0179
    1DIPC   C1B22137  25.506  12.509   2.791 -0.3797 -0.0627  0.4011
    1DIPC   D2B22138  25.506  12.388   3.185  0.1701 -0.1161 -0.0004
    1DIPC   D3B22139  25.734  12.642   3.601 -0.0768 -0.4807 -0.1232
    1DIPC   C4B22140  26.011  12.799   3.340 -0.3514  0.2178  0.0307
    1DIPC   NC322141  28.197  24.340   2.479  0.1482  0.2103 -0.0153
    1DIPC   PO422142  28.506  24.581   2.766  0.3293  0.0718 -0.5586
    1DIPC   GL122143  28.583  24.665   3.122  0.0315 -0.0430 -0.0632
    1DIPC   GL222144  28.573  24.419   3.303 -0.2793  0.0575  0.1604
    1DIPC   C1A22145  28.542  24.917   3.580 -0.0974  0.2100  0.0154
    1DIPC   D2A22146  28.272  24.597   3.799 -0.1803 -0.0756  0.0277
    1DIPC   D3A22147  27.990  24.869   4.105 -0.0831 -0.1243 -0.3388
    1DIPC   C4A22148  28.190  25.281   4.286 -0.0319 -0.1477  0.0982
    1DIPC   C1B22149  28.815  24.430   3.661  0.1795  0.1318 -0.0697
    1DIPC   D2B22150  29.080  24.624   3.905 -0.0313 -0.0539  0.1067
    1DIPC   D3B22151  28.622  24.838   4.064  0.2283 -0.1739  0.1737
    1DIPC   C4B22152  28.381  24.744   4.481  0.4419 -0.1535  0.2111
    1DIPC   NC322153  15.554  23.268   2.889  0.0884 -0.2523 -0.2009
    1DIPC   PO422154  15.962  23.127   2.902 -0.2057  0.1208 -0.0069
    1DIPC   GL122155  16.046  23.065   3.326 -0.0056  0.0846  0.0632
    1DIPC   GL222156  15.806  22.779   3.436 -0.1119 -0.0135 -0.0624
    1DIPC   C1A22157  16.057  23.155   3.765  0.1143  0.0726  0.0286
    1DIPC   D2A22158  16.353  23.315   4.056 -0.0219 -0.0165 -0.1666
    1DIPC   D3A22159  16.461  23.642   3.707  0.2469  0.0854 -0.0456
    1DIPC   C4A22160  16.553  24.033   3.934  0.0054  0.0970 -0.1794
    1DIPC   C1B22161  15.699  22.329   3.629 -0.0176 -0.0687  0.1662
    1DIPC   D2B22162  15.580  22.112   4.023  0.0734  0.2549 -0.0547
    1DIPC   D3B22163  15.080  22.132   4.229 -0.0528  0.0380  0.1923
    1DIPC   C4B22164  14.673  22.355   3.977 -0.0624 -0.0904 -0.1194
    1DIPC   NC322165  20.248  25.461   3.339  0.0105  0.2592  0.1334
    1DIPC   PO422166  20.364  25.015   3.498 -0.2975  0.0828 -0.3208
    1DIPC   GL122167  20.412  25.184   3.854  0.0110 -0.0567 -0.0238
    1DIPC   GL222168  20.470  25.470   3.879  0.1114  0.1052  0.2665
    1DIPC   C1A22169  20.678  25.126   4.125 -0.0957 -0.0402 -0.1253
    1DIPC   D2A22170  20.685  25.114   4.511  0.0247 -0.1177  0.0254
    1DIPC   D3A22171  20.543  24.808   4.806 -0.0102  0.0400 -0.2588
    1DIPC   C4A22172  20.631  24.425   4.659 -0.0637 -0.1111 -0.0581
    1DIPC   C1B22173  20.391  25.531   4.285  0.0738  0.3827 -0.0904
    1DIPC   D2B22174  19.999  25.806   4.515 -0.0881  0.4909  0.1014
    1DIPC   D3B22175  20.050  25.384   4.679  0.1716  0.2371 -0.2243
    1DIPC   C4B22176  20.429  25.273   4.973  0.0654 -0.0712 -0.0447
    1DIPC   NC322177   1.850   3.026   2.871  0.0942  0.1132 -0.0901
    1DIPC   PO422178   1.893   2.928   3.227 -0.3024 -0.2736  0.1686
    1DIPC   GL122179   2.023   2.948   3.657 -0.0812 -0.3163 -0.0083
    1DIPC   GL222180   2.158   2.932   3.926  0.1338 -0.1202 -0.4146
    1DIPC   C1A22181   1.695   2.965   4.030 -0.2002 -0.1565  0.0809
    1DIPC   D2A22182   1.336   2.917   4.237 -0.0026 -0.1366 -0.1854
    1DIPC   D3A22183   1.428   3.334   4.285  0.0995 -0.2652  0.0491
    1DIPC   C4A22184   1.498   3.814   4.402 -0.0418  0.2950  0.1209
    1DIPC   C1B22185   2.277   3.399   3.915 -0.1640  0.1262  0.2980
    1DIPC   D2B22186   2.193   3.820   4.111  0.1158  0.1432 -0.0125
    1DIPC   D3B22187   1.833   4.011   3.950 -0.1658 -0.0658 -0.0785
    1DIPC   C4B22188   1.598   4.307   4.254  0.1237  0.1304  0.2362
    1DIPC   NC322189   6.767  13.376   3.043  0.0940 -0.0019  0.2254
    1DIPC   PO422190   6.937  13.552   2.698  0.1330 -0.0134 -0.0108
    1DIPC   GL122191   7.250  13.676   3.095 -0.0567  0.2195 -0.0253
    1DIPC   GL222192   7.086  13.624   3.309 -0.0223 -0.0196  0.0032
    1DIPC   C1A22193   7.558  13.916   3.365 -0.0234 -0.0205 -0.2192
    1DIPC   D2A22194   7.572  14.224   3.832 -0.1651  0.3144 -0.0880
    1DIPC   D3A22195   7.496  13.851   3.927 -0.3045  0.1398  0.2687
    1DIPC   C4A22196   7.611  13.621   4.278  0.1169 -0.1446  0.1907
    1DIPC   C1B22197   7.067  13.817   3.649 -0.1506  0.1135  0.0201
    1DIPC   D2B22198   7.017  14.030   4.050 -0.0003  0.0404  0.3460
    1DIPC   D3B22199   7.270  13.940   4.393  0.2197  0.0447  0.0650
    1DIPC   C4B22200   7.610  14.190   4.390  0.2373 -0.0924 -0.1583
    1DIPC   NC322201   2.009  19.862   1.994 -0.2123 -0.1020 -0.3086
    1DIPC   PO422202   2.423  19.916   2.055  0.3033  0.0985  0.3543
    1DIPC   GL122203   2.440  19.695   2.492  0.4167  0.4913 -0.0832
    1DIPC   GL222204   2.687  19.838   2.576 -0.0574 -0.2342 -0.2984
    1DIPC   C1A22205   2.371  19.256   2.791 -0.0156  0.1455  0.2232
    1DIPC   D2A22206   2.271  18.875   3.017  0.0351  0.2077 -0.1230
    1DIPC   D3A22207   2.501  19.079   3.296  0.4128 -0.0598 -0.1120
    1DIPC   C4A22208   2.704  19.251   3.546  0.0614  0.2660 -0.2078
    1DIPC   C1B22209   2.299  19.843   2.914  0.1402 -0.3666 -0.1531
    1DIPC   D2B22210   1.977  19.878   3.257 -0.0876  0.5181 -0.2465
    1DIPC   D3B22211   1.971  19.825   3.699  0.3659 -0.1861 -0.0297
    1DIPC   C4B22212   1.825  19.493   4.047 -0.1212 -0.0605 -0.1783
    1DIPC   NC322213  15.889   3.254   3.685 -0.0965 -0.2951  0.2441
    1DIPC   PO422214  15.582   2.970   3.440  0.0968  0.0051  0.0702
    1DIPC   GL122215  15.568   2.899   3.849 -0.0272  0.0344  0.2157
    1DIPC   GL222216  15.891   2.797   3.990 -0.1289  0.1396 -0.0219
    1DIPC   C1A22217  15.273   2.893   4.164  0.3121  0.0525  0.0678
    1DIPC   D2A22218  14.869   2.726   4.437 -0.0331  0.0158  0.3536
    1DIPC   D3A22219  14.877   2.584   4.751  0.3277  0.1366 -0.1514
    1DIPC   C4A22220  14.433   2.600   4.972 -0.0001 -0.1886 -0.1714
    1DIPC   C1B22221  16.019   2.822   4.356  0.3280  0.1311  0.1822
    1DIPC   D2B22222  15.905   2.602   4.755  0.2378  0.1406  0.0595
    1DIPC   D3B22223  16.369   2.722   4.925  0.0639 -0.1297 -0.2874
    1DIPC   C4B22224  16.716   3.011   4.883  0.1180 -0.2764  0.1497
    1DIPC   NC322225   0.263   2.872   2.609  0.3512  0.3728  0.2698
    1DIPC   PO422226   0.132   3.184   2.936  0.1188 -0.0766 -0.1520
    1DIPC   GL122227   0.003   2.989   3.317 -0.2996 -0.2137 -0.2572
    1DIPC   GL222228  -0.415   2.836   3.266 -0.3681  0.0730 -0.1869
    1DIPC   C1A22229  -0.106   3.143   3.699  0.1322 -0.4288 -0.1112
    1DIPC   D2A22230  -0.195   3.540   3.903  0.2237  0.4497 -0.0375
    1DIPC   D3A22231  -0.522   3.642   4.242 -0.3056  0.0994  0.0292
    1DIPC   C4A22232  -0.627   3.532   4.711  0.0014 -0.2655  0.0595
    1DIPC   C1B22233  -0.675   2.961   3.599  0.1414 -0.2106  0.2242
    1DIPC   D2B22234  -0.664   3.095   4.051 -0.1825 -0.1958  0.2472
    1DIPC   D3B22235  -0.253   3.201   4.214  0.0750  0.1999 -0.1747
    1DIPC   C4B22236  -0.099   3.320   4.516 -0.0305  0.3601 -0.0500
    1DIPC   NC322237   6.563   5.155   3.008  0.4187  0.2980  0.3858
    1DIPC   PO422238   6.114   5.150   2.884 -0.0798  0.2753  0.1942
    1DIPC   GL122239   6.142   5.028   3.338  0.2029  0.0243  0.0715
    1DIPC   GL222240   6.069   5.214   3.591  0.0496  0.2279  0.0441
    1DIPC   C1A22241   6.110   4.713   3.697 -0.0914  0.0398 -0.0742
    1DIPC   D2A22242   6.279   4.496   4.160 -0.1132 -0.1004  0.2641
    1DIPC   D3A22243   6.267   4.571   4.590  0.0299 -0.0795 -0.2341
    1DIPC   C4A22244   6.370   5.031   4.785  0.0170 -0.0635 -0.1007
    1DIPC   C1B22245   6.376   5.131   3.946  0.2369 -0.1309  0.2185
    1DIPC   D2B22246   6.578   4.829   4.274  0.0439  0.0130 -0.0359
    1DIPC   D3B22247   6.904   5.031   4.528 -0.2037  0.1091  0.0744
    1DIPC   C4B22248   6.831   5.258   4.786 -0.1234  0.0567 -0.1811
    1DIPC   NC322249  23.534   3.826   2.342 -0.3622  0.0337 -0.1637
    1DIPC   PO422250  24.026   3.880   2.382 -0.1624 -0.2101 -0.0209
    1DIPC   GL122251  24.102   3.880   2.874 -0.0740 -0.0239 -0.1692
    1DIPC   GL222252  24.349   3.812   3.171 -0.2713  0.1654  0.0563
    1DIPC   C1A22253  23.817   3.842   3.252 -0.1140  0.0217  0.5343
    1DIPC   D2A22254  23.686   3.694   3.667  0.0421 -0.1297  0.3384
    1DIPC   D3A22255  23.669   4.107   3.687  0.0342 -0.2063 -0.1579
    1DIPC   C4A22256  23.471   4.329   4.135 -0.0894 -0.1931  0.0750
    1DIPC   C1B22257  24.208   3.910   3.600  0.1967  0.2435 -0.1105
    1DIPC   D2B22258  24.015   3.995   4.019 -0.0864  0.0840 -0.0070
    1DIPC   D3B22259  24.053   3.615   3.984 -0.0881  0.0174  0.0345
    1DIPC   C4B22260  24.451   3.412   3.918  0.1776 -0.1221  0.1660
    1DIPC   NC322261  26.660   5.137   2.590  0.0476  0.0817  0.2844
    1DIPC   PO422262  26.345   5.368   2.845 -0.2578  0.0826 -0.0495
    1DIPC   GL122263  26.610   5.509   3.065  0.2320  0.0660  0.1435
    1DIPC   GL222264  26.557   5.873   3.057  0.0243 -0.0119 -0.0012
    1DIPC   C1A22265  26.823   5.698   3.462  0.0538 -0.1438  0.0716
    1DIPC   D2A22266  26.990   5.918   3.828  0.1121 -0.0316  0.0384
    1DIPC   D3A22267  26.841   5.552   4.100  0.2658 -0.1091  0.0499
    1DIPC   C4A22268  27.319   5.607   4.261  0.0162  0.1158  0.0868
    1DIPC   C1B22269  26.857   6.192   3.246  0.1085 -0.2059  0.1492
    1DIPC   D2B22270  26.690   6.527   3.611 -0.0322  0.3542  0.1616
    1DIPC   D3B22271  26.317   6.686   3.657  0.3181  0.1248 -0.0522
    1DIPC   C4B22272  26.219   6.995   3.452 -0.0000 -0.2100  0.3034
    1DIPC   NC322273   1.181  27.622   2.983 -0.1060 -0.2905  0.0868
    1DIPC   PO422274   1.275  28.060   3.182 -0.1153 -0.1724  0.0509
    1DIPC   GL122275   1.391  28.067   3.568  0.0100  0.0779  0.1229
    1DIPC   GL222276   1.165  28.066   3.821  0.1008  0.1229  0.2027
    1DIPC   C1A22277   1.589  27.667   3.846 -0.0797 -0.1694 -0.0544
    1DIPC   D2A22278   1.549  27.537   4.337 -0.1150  0.1000  0.3203
    1DIPC   D3A22279   1.415  27.794   4.513  0.0088 -0.4576 -0.0576
    1DIPC   C4A22280   1.620  28.119   4.716  0.1162 -0.2335 -0.0012
    1DIPC   C1B22281   1.128  27.729   4.086 -0.1047  0.0196  0.3226
    1DIPC   D2B22282   1.035  27.542   4.522  0.3010 -0.1893  0.1838
    1DIPC   D3B22283   0.765  27.249   4.680 -0.2381 -0.2696  0.0160
    1DIPC   C4B22284   0.644  26.984   4.280 -0.2473 -0.1091  0.0886
    1DIPC   NC322285  24.017   4.317   2.638 -0.1474  0.2431  0.3465
    1DIPC   PO422286  24.363   4.583   2.730  0.1663  0.0907 -0.3671
    1DIPC   GL122287  24.375   4.377   3.103 -0.0269  0.0593 -0.1427
    1DIPC   GL222288  24.733   4.176   3.055  0.0523 -0.0374 -0.1925
    1DIPC   C1A22289  24.456   4.348   3.552  0.2122  0.0629  0.1196
    1DIPC   D2A22290  24.403   4.256   3.977 -0.1337 -0.0571 -0.0808
    1DIPC   D3A22291  24.449   4.692   4.026 -0.0927  0.2837  0.1141
    1DIPC   C4A22292  24.194   4.987   3.791  0.1847  0.0297 -0.1480
    1DIPC   C1B22293  24.958   4.529   3.309 -0.4588 -0.0737  0.0620
    1DIPC   D2B22294  25.182   4.903   3.591 -0.0515 -0.1797 -0.0134
    1DIPC   D3B22295  25.434   5.246   3.838 -0.0740  0.3836 -0.1766
    1DIPC   C4B22296  25.178   5.553   4.085  0.0230 -0.3654 -0.2637
    1DIPC   NC322297  21.307  25.948   2.719  0.3136  0.0501 -0.1136
    1DIPC   PO422298  21.391  26.268   2.955 -0.1467 -0.0608  0.0793
    1DIPC   GL122299  21.368  26.207   3.480  0.2668  0.0154 -0.0107
    1DIPC   GL222300  21.083  26.210   3.680  0.0630  0.0400  0.2709
    1DIPC   C1A22301  21.498  25.977   3.897 -0.1097 -0.0713 -0.0810
    1DIPC   D2A22302  21.912  25.926   4.069  0.1026  0.2448  0.2632
    1DIPC   D3A22303  21.856  26.259   4.258  0.0740 -0.1265  0.1803
    1DIPC   C4A22304  21.499  26.352   4.550  0.2008 -0.1901 -0.1622
    1DIPC   C1B22305  21.110  26.214   4.078 -0.2869  0.5673 -0.2662
    1DIPC   D2B22306  20.807  26.311   4.457 -0.0122 -0.0296 -0.0115
    1DIPC   D3B22307  21.159  25.983   4.541 -0.1368 -0.1206  0.0731
    1DIPC   C4B22308  21.308  25.990   4.949 -0.3333 -0.1365 -0.0227
    1DIPC   NC322309   0.451  28.080   3.026 -0.2332 -0.0892  0.0364
    1DIPC   PO422310   0.125  27.871   2.945  0.0018  0.2443  0.0372
    1DIPC   GL122311   0.135  27.751   3.362  0.2218  0.0521  0.1705
    1DIPC   GL222312   0.517  27.826   3.482 -0.0686  0.2528 -0.1134
    1DIPC   C1A22313   0.071  27.671   3.829  0.1306  0.2956  0.1500
    1DIPC   D2A22314   0.267  27.705   4.209  0.0898 -0.2225  0.1600
    1DIPC   D3A22315   0.204  27.296   4.446  0.0387 -0.1034 -0.0273
    1DIPC   C4A22316   0.362  26.873   4.711  0.0394 -0.3387 -0.0762
    1DIPC   C1B22317   0.559  27.424   3.552  0.5197 -0.1300  0.0657
    1DIPC   D2B22318   0.403  27.243   3.900 -0.0021 -0.0666  0.2629
    1DIPC   D3B22319   0.721  27.465   4.120  0.0271  0.2566 -0.0473
    1DIPC   C4B22320   1.128  27.261   4.170 -0.1884 -0.0955 -0.2710
    1DIPC   NC322321   4.101   1.140   2.957 -0.0592  0.2428 -0.0613
    1DIPC   PO422322   3.832   1.157   3.246  0.2244  0.0779  0.0805
    1DIPC   GL122323   3.813   1.043   3.779  0.2346  0.0221 -0.1766
    1DIPC   GL222324   3.721   1.323   4.052 -0.0417 -0.4151 -0.0780
    1DIPC   C1A22325   3.415   0.887   4.019  0.3487  0.1087  0.2636
    1DIPC   D2A22326   3.284   0.627   4.413  0.2316  0.1136  0.1174
    1DIPC   D3A22327   3.337   0.991   4.643  0.1441 -0.3391 -0.1609
    1DIPC   C4A22328   3.001   1.073   4.962 -0.0551 -0.0098  0.2171
    1DIPC   C1B22329   4.093   1.086   4.278  0.1904 -0.4571 -0.0277
    1DIPC   D2B22330   4.480   0.911   4.363 -0.0862  0.1895 -0.0236
    1DIPC   D3B22331   4.836   1.139   4.495 -0.2316  0.3942  0.1353
    1DIPC   C4B22332   4.763   1.306   4.921  0.0619  0.0693  0.3038
    1DIPC   NC322333  20.501  13.852   1.966  0.1747  0.0967 -0.4120
    1DIPC   PO422334  20.872  14.095   2.185  0.0472 -0.1668 -0.0952
    1DIPC   GL122335  20.632  14.063   2.536  0.1612 -0.1799  0.0343
    1DIPC   GL222336  20.469  14.283   2.705 -0.0478 -0.0423 -0.0981
    1DIPC   C1A22337  20.992  14.053   2.949 -0.0505 -0.1256 -0.0938
    1DIPC   D2A22338  21.364  14.049   2.908 -0.0290 -0.0932  0.2849
    1DIPC   D3A22339  21.613  14.139   3.119 -0.1540 -0.2005 -0.2089
    1DIPC   C4A22340  22.018  14.044   3.157  0.0553 -0.1145  0.0952
    1DIPC   C1B22341  20.561  14.293   3.193 -0.0112  0.0365  0.2406
    1DIPC   D2B22342  20.586  14.165   3.617 -0.2785  0.0416  0.1804
    1DIPC   D3B22343  20.722  13.866   3.388 -0.0364 -0.0756  0.2105
    1DIPC   C4B22344  20.470  13.777   3.013 -0.0573 -0.1180 -0.1543
    1DIPC   NC322345   2.526   1.504   3.176  0.3296 -0.0438 -0.3203
    1DIPC   PO422346   2.085   1.633   3.151 -0.1483  0.1081 -0.1688
    1DIPC   GL122347   2.324   1.829   3.461 -0.1965 -0.2419 -0.0619
    1DIPC   GL222348   2.483   1.577   3.660  0.0872 -0.1724  0.0047
    1DIPC   C1A22349   2.414   2.156   3.768  0.1589  0.3400 -0.2459
    1DIPC   D2A22350   2.276   2.486   4.101  0.1878 -0.3916  0.1599
    1DIPC   D3A22351   2.408   2.830   4.334  0.3568  0.0080  0.0749
    1DIPC   C4A22352   2.625   3.192   4.151  0.0703 -0.2461 -0.0992
    1DIPC   C1B22353   2.826   1.677   4.058  0.3664  0.1762  0.1873
    1DIPC   D2B22354   3.251   1.370   4.219  0.0505  0.0980  0.2060
    1DIPC   D3B22355   3.548   1.802   4.125  0.1729  0.0604 -0.1168
    1DIPC   C4B22356   3.846   1.794   4.369 -0.1312  0.0223  0.2120
    1DIPC   NC322357  27.538   8.077   2.590  0.1506  0.0819  0.4158
    1DIPC   PO422358  27.201   7.804   2.421 -0.1619 -0.1450  0.0705
    1DIPC   GL122359  27.049   7.985   2.786  0.0828 -0.2264  0.3105
    1DIPC   GL222360  27.175   8.352   2.764 -0.1837  0.0936 -0.0446
    1DIPC   C1A22361  26.854   8.045   3.181 -0.3646  0.0717  0.3008
    1DIPC   D2A22362  26.926   7.975   3.649  0.1705 -0.2879  0.0052
    1DIPC   D3A22363  27.260   7.803   3.558 -0.0383 -0.0443 -0.1259
    1DIPC   C4A22364  27.472   7.644   3.884  0.3676  0.1292 -0.1225
    1DIPC   C1B22365  27.006   8.509   3.188  0.1444  0.0452 -0.0137
    1DIPC   D2B22366  26.645   8.397   3.514  0.3884 -0.2426 -0.0849
    1DIPC   D3B22367  26.707   8.330   3.994 -0.0894  0.0992 -0.4077
    1DIPC   C4B22368  26.496   8.542   4.343 -0.0801 -0.1682 -0.3177
    1DIPC   NC322369  17.199   2.226   3.377  0.2109  0.2635 -0.1084
    1DIPC   PO422370  17.449   1.873   3.441 -0.0193 -0.2129 -0.0543
    1DIPC   GL122371  17.434   2.009   3.828 -0.3997  0.0696  0.1054
    1DIPC   GL222372  17.176   1.800   3.983  0.1292 -0.0687  0.0331
    1DIPC   C1A22373  17.570   2.299   4.004  0.1393 -0.3196 -0.0474
    1DIPC   D2A22374  17.815   2.528   4.316  0.1977  0.0128 -0.0430
    1DIPC   D3A22375  17.533   2.228   4.622 -0.3810 -0.3279 -0.2124
    1DIPC   C4A22376  17.553   2.121   4.994 -0.2263  0.2362 -0.0785
    1DIPC   C1B22377  17.541   1.888   4.286 -0.1190 -0.2336  0.0658
    1DIPC   D2B22378  17.710   1.693   4.601 -0.0201 -0.2933  0.1421
    1DIPC   D3B22379  18.098   1.994   4.708  0.0852 -0.0188 -0.0183
    1DIPC   C4B22380  18.517   1.933   4.874 -0.0120  0.1482  0.1589
    1DIPC   NC322381  25.310  16.109   1.779  0.0298 -0.2155 -0.0175
    1DIPC   PO422382  25.252  16.381   2.196 -0.0317  0.1042 -0.0026
    1DIPC   GL122383  25.177  16.513   2.629 -0.1003  0.0884  0.0925
    1DIPC   GL222384  24.914  16.483   2.815  0.1865  0.3611 -0.3836
    1DIPC   C1A22385  25.192  16.814   3.095  0.1298  0.0028  0.2935
    1DIPC   D2A22386  25.491  16.925   3.390 -0.1635 -0.3291 -0.2354
    1DIPC   D3A22387  25.401  17.355   3.270  0.1744  0.2558 -0.0627
    1DIPC   C4A22388  25.047  17.525   3.073 -0.0655 -0.3179  0.1095
    1DIPC   C1B22389  24.947  16.370   3.233  0.1933  0.3649 -0.1883
    1DIPC   D2B22390  25.155  16.509   3.625  0.2388  0.0256  0.2061
    1DIPC   D3B22391  25.018  16.589   4.032  0.0595  0.2320 -0.1568
    1DIPC   C4B22392  24.765  16.682   4.388  0.1402 -0.0658 -0.1509
    1DIPC   NC322393  28.510   7.006   2.730 -0.0523  0.4036 -0.2413
    1DIPC   PO422394  28.690   6.623   2.790  0.1655 -0.0633 -0.4801
    1DIPC   GL122395  28.734   6.537   3.238 -0.1122 -0.0644  0.0489
    1DIPC   GL222396  28.510   6.385   3.246  0.1778  0.0095  0.0909
    1DIPC   C1A22397  28.751   6.613   3.647 -0.0868 -0.1674  0.0930
    1DIPC   D2A22398  28.571   6.922   3.871 -0.1484 -0.0521 -0.2084
    1DIPC   D3A22399  28.456   6.656   4.064 -0.1319 -0.2897 -0.4228
    1DIPC   C4A22400  28.123   6.363   3.979  0.0434  0.2468  0.0384
    1DIPC   C1B22401  28.234   6.681   3.581  0.4142  0.1134 -0.0004
    1DIPC   D2B22402  28.041   6.915   3.879  0.2419 -0.1562 -0.0601
    1DIPC   D3B22403  28.018   6.766   4.275  0.0177  0.2757 -0.1802
    1DIPC   C4B22404  27.587   6.893   4.460  0.0168  0.1749  0.3218
    1DIPC   NC322405  14.848   1.649   3.665  0.3667 -0.2321 -0.3534
    1DIPC   PO422406  14.472   1.532   3.777  0.1983  0.4043 -0.2734
    1DIPC   GL122407  14.465   1.631   4.177 -0.1984 -0.0031  0.0266
    1DIPC   GL222408  14.595   1.345   4.391  0.0891  0.0738  0.0237
    1DIPC   C1A22409  14.413   1.736   4.590 -0.0483  0.1155  0.1979
    1DIPC   D2A22410  14.467   1.608   5.085  0.1646 -0.4011 -0.1258
    1DIPC   D3A22411  14.887   1.571   5.163 -0.1368 -0.2455  0.0683
    1DIPC   C4A22412  14.845   1.757   5.511  0.0515  0.2409 -0.3278
    1DIPC   C1B22413  14.677   1.265   4.805 -0.2722  0.2738  0.3562
    1DIPC   D2B22414  14.604   1.096   5.175 -0.1803 -0.2689  0.3259
    1DIPC   D3B22415  14.816   1.212   5.540  0.0970  0.1417  0.0225
    1DIPC   C4B22416  15.194   1.231   5.310  0.3351 -0.4455  0.1994
    1DIPC   NC322417  12.780  22.698   3.203 -0.1379  0.5001  0.2200
    1DIPC   PO422418  12.644  22.445   2.835  0.2597 -0.2266 -0.0585
    1DIPC   GL122419  12.690  22.233   3.276 -0.0548 -0.3268  0.1760
    1DIPC   GL222420  12.781  22.060   3.363  0.3524  0.0294  0.0504
    1DIPC   C1A22421  12.313  22.154   3.528  0.1068  0.2310  0.1467
    1DIPC   D2A22422  11.847  22.021   3.595  0.1516  0.0156 -0.2384
    1DIPC   D3A22423  11.856  22.051   3.182 -0.2814 -0.1524 -0.0589
    1DIPC   C4A22424  11.427  21.975   3.226  0.1584  0.0484  0.1745
    1DIPC   C1B22425  12.810  22.262   3.776 -0.4257 -0.2244 -0.0465
    1DIPC   D2B22426  12.504  22.463   3.930  0.0107  0.2997 -0.1496
    1DIPC   D3B22427  12.627  22.808   3.658  0.0310  0.0153  0.0684
    1DIPC   C4B22428  12.630  23.236   3.796 -0.1238 -0.0739 -0.2664
    1DIPC   NC322429  24.683  18.732   2.802  0.4682 -0.3144  0.1397
    1DIPC   PO422430  24.947  19.033   2.855 -0.3165  0.1502 -0.1837
    1DIPC   GL122431  24.944  18.713   3.259 -0.2110  0.0732  0.0093
    1DIPC   GL222432  24.967  19.007   3.364  0.0780 -0.0076  0.0800
    1DIPC   C1A22433  24.791  18.355   3.443  0.2824 -0.2512 -0.2576
    1DIPC   D2A22434  24.505  18.129   3.580 -0.0748 -0.3253 -0.1969
    1DIPC   D3A22435  24.700  17.801   3.897  0.3604 -0.1846 -0.1236
    1DIPC   C4A22436  24.738  17.822   4.321 -0.0663  0.1301 -0.3663
    1DIPC   C1B22437  24.961  18.727   3.753 -0.3615 -0.0495  0.1916
    1DIPC   D2B22438  25.076  18.229   3.894 -0.0438 -0.3366  0.0797
    1DIPC   D3B22439  25.476  17.931   3.823  0.2459 -0.0236 -0.1941
    1DIPC   C4B22440  25.408  17.569   4.182  0.4665  0.0911  0.1069
    1DIPC   NC322441   4.476  25.833   2.186  0.2866  0.0769  0.1595
    1DIPC   PO422442   4.738  25.944   2.590  0.1434  0.2689  0.0211
    1DIPC   GL122443   4.613  25.804   3.007  0.0268  0.0128 -0.1160
    1DIPC   GL222444   4.430  26.010   3.095  0.0735  0.1419 -0.4132
    1DIPC   C1A22445   4.361  25.473   3.171 -0.0473 -0.0986 -0.1366
    1DIPC   D2A22446   3.958  25.513   3.313  0.2066  0.2278 -0.0151
    1DIPC   D3A22447   3.701  25.176   3.494 -0.1716  0.0422  0.3178
    1DIPC   C4A22448   3.382  25.392   3.718  0.1239  0.1591  0.3356
    1DIPC   C1B22449   4.444  26.274   3.505 -0.3211  0.0390  0.1157
    1DIPC   D2B22450   4.678  26.485   3.790 -0.0603  0.1784 -0.2097
    1DIPC   D3B22451   4.644  26.101   4.057  0.0461 -0.1201  0.3421
    1DIPC   C4B22452   4.953  26.112   4.322 -0.0991 -0.0103 -0.3291
    1DIPC   NC322453  15.084   8.216   3.392  0.0849  0.4998 -0.0346
    1DIPC   PO422454  15.361   8.300   3.217  0.2104  0.0761  0.2007
    1DIPC   GL122455  15.495   8.180   3.633 -0.3021  0.2668 -0.0275
    1DIPC   GL222456  15.529   8.525   3.715  0.3326  0.0863 -0.0470
    1DIPC   C1A22457  15.521   8.110   4.027  0.0803  0.2513 -0.2887
    1DIPC   D2A22458  15.649   8.258   4.427  0.0008 -0.1989 -0.0405
    1DIPC   D3A22459  16.069   8.403   4.559 -0.2084  0.4119  0.3059
    1DIPC   C4A22460  16.379   8.128   4.730 -0.3059  0.1027 -0.2880
    1DIPC   C1B22461  15.518   8.703   4.087  0.4775  0.0348 -0.4588
    1DIPC   D2B22462  15.733   8.751   4.423 -0.0172 -0.1546  0.0753
    1DIPC   D3B22463  15.765   8.707   4.847  0.0479 -0.0148 -0.0848
    1DIPC   C4B22464  16.086   8.870   5.125  0.0249  0.0592 -0.0845
    1DIPC   NC322465   6.557  24.224   2.928  0.0587  0.1367 -0.1169
    1DIPC   PO422466   6.732  24.541   2.680  0.0861  0.3169 -0.0191
    1DIPC   GL122467   6.709  24.772   3.164 -0.0027  0.1280  0.4579
    1DIPC   GL222468   6.926  24.529   3.221 -0.0009  0.0659  0.1478
    1DIPC   C1A22469   6.738  25.127   3.382 -0.0050 -0.1930 -0.3143
    1DIPC   D2A22470   6.945  25.450   3.470 -0.1005  0.0207 -0.0515
    1DIPC   D3A22471   7.148  25.710   3.828 -0.2421  0.0489  0.0647
    1DIPC   C4A22472   6.827  25.936   4.067 -0.2531 -0.0441  0.0112
    1DIPC   C1B22473   6.957  24.356   3.639 -0.1064 -0.1323 -0.2228
    1DIPC   D2B22474   6.811  23.987   3.896  0.1822  0.1376 -0.3804
    1DIPC   D3B22475   6.576  24.049   4.254  0.0553  0.0112 -0.0187
    1DIPC   C4B22476   6.405  23.723   4.560 -0.1350  0.0937 -0.1491
    1DIPC   NC322477  11.749  27.340   3.826 -0.1952  0.0522 -0.1111
    1DIPC   PO422478  11.319  27.397   3.642 -0.0633 -0.0017  0.1237
    1DIPC   GL122479  11.255  27.286   4.072 -0.0825  0.0710 -0.0599
    1DIPC   GL222480  11.095  26.991   4.128  0.0503 -0.1542 -0.1128
    1DIPC   C1A22481  11.501  27.061   4.370  0.0236  0.0182  0.0550
    1DIPC   D2A22482  11.524  27.142   4.839 -0.3212  0.0958  0.0001
    1DIPC   D3A22483  11.665  27.105   5.278  0.5083  0.1495  0.0038
    1DIPC   C4A22484  12.022  26.988   5.460 -0.1955 -0.0643  0.1665
    1DIPC   C1B22485  11.055  27.089   4.565 -0.1017  0.3289  0.1468
    1DIPC   D2B22486  10.722  27.036   4.906 -0.1964 -0.1578 -0.5327
    1DIPC   D3B22487  10.255  26.965   4.894 -0.0918 -0.0490 -0.1205
    1DIPC   C4B22488  10.166  26.971   5.278 -0.1176 -0.0786  0.0149
    1DIPC   NC322489  27.158   2.268   3.041 -0.2485  0.3115 -0.1711
    1DIPC   PO422490  27.308   1.784   3.128 -0.0516 -0.0554 -0.0371
    1DIPC   GL122491  27.020   1.917   3.375 -0.1249  0.1279 -0.0126
    1DIPC   GL222492  26.793   1.726   3.337  0.1004  0.1800  0.1762
    1DIPC   C1A22493  26.862   2.183   3.647 -0.0268  0.3259  0.2566
    1DIPC   D2A22494  26.572   2.525   3.645 -0.1495  0.0016 -0.2434
    1DIPC   D3A22495  26.590   2.309   4.066 -0.0650  0.0331 -0.0825
    1DIPC   C4A22496  26.762   2.432   4.438 -0.0051 -0.0747 -0.0332
    1DIPC   C1B22497  26.658   1.713   3.685 -0.1672 -0.0380  0.1440
    1DIPC   D2B22498  26.639   1.731   4.108 -0.1059  0.3591  0.2897
    1DIPC   D3B22499  26.440   1.826   4.515  0.3680 -0.1494 -0.4270
    1DIPC   C4B22500  26.709   1.933   4.816  0.0986  0.4998 -0.2895
    1DIPC   NC322501   2.839  25.224   2.725 -0.0864 -0.0148  0.1060
    1DIPC   PO422502   3.234  25.090   2.840 -0.0445 -0.0742  0.1139
    1DIPC   GL122503   3.302  24.871   3.219 -0.0585  0.0060 -0.1656
    1DIPC   GL222504   2.987  24.984   3.288  0.1064  0.1001  0.1360
    1DIPC   C1A22505   3.424  24.601   3.656 -0.0189 -0.0384 -0.1649
    1DIPC   D2A22506   3.263  24.238   3.851 -0.0192 -0.0834  0.1635
    1DIPC   D3A22507   2.918  24.139   4.117  0.2133  0.2745  0.0679
    1DIPC   C4A22508   2.500  23.971   4.232  0.0653 -0.2324 -0.3140
    1DIPC   C1B22509   2.751  25.063   3.663 -0.0230  0.0081  0.2308
    1DIPC   D2B22510   2.464  25.040   3.963 -0.2303 -0.2857  0.0869
    1DIPC   D3B22511   2.692  24.837   4.252 -0.2481 -0.1319 -0.1418
    1DIPC   C4B22512   2.513  24.503   4.401  0.1949  0.3107 -0.2683
    1DIPC   NC322513  28.819   7.658   2.717 -0.1153  0.3573 -0.1840
    1DIPC   PO422514  28.924   7.988   2.961 -0.0601 -0.0417 -0.2298
    1DIPC   GL122515  29.008   8.001   3.398  0.0756  0.0790  0.3123
    1DIPC   GL222516  28.966   7.830   3.630  0.2010 -0.2206  0.1260
    1DIPC   C1A22517  28.843   8.302   3.760 -0.0083 -0.0093 -0.0658
    1DIPC   D2A22518  28.644   8.435   4.124 -0.0374  0.4441  0.0902
    1DIPC   D3A22519  29.101   8.537   4.089 -0.2731 -0.2879  0.0952
    1DIPC   C4A22520  29.347   8.273   3.923 -0.0549  0.1093 -0.0740
    1DIPC   C1B22521  29.196   7.780   3.984 -0.0527 -0.2588  0.2200
    1DIPC   D2B22522  29.346   7.981   4.425 -0.1316  0.1206  0.1585
    1DIPC   D3B22523  29.350   7.541   4.684 -0.3557  0.3627  0.0483
    1DIPC   C4B22524  29.238   7.502   5.099 -0.1725  0.2694 -0.2893
    1DIPC   NC322525  22.192  14.248   2.271  0.0235 -0.2640  0.2191
    1DIPC   PO422526  22.194  13.937   2.463 -0.3348  0.0637  0.0781
    1DIPC   GL122527  22.043  13.729   2.838  0.0133  0.0141  0.0341
    1DIPC   GL222528  21.821  13.768   2.824  0.3353  0.2909 -0.4400
    1DIPC   C1A22529  22.261  13.566   3.146 -0.0043 -0.0807  0.0255
    1DIPC   D2A22530  22.430  13.147   3.301  0.1034 -0.0618  0.1200
    1DIPC   D3A22531  22.788  13.389   3.235  0.0369 -0.0040 -0.0103
    1DIPC   C4A22532  22.804  13.811   3.453 -0.4282 -0.0522  0.2736
    1DIPC   C1B22533  21.771  13.552   3.221 -0.0116  0.1856 -0.0935
    1DIPC   D2B22534  22.062  13.628   3.609  0.1841  0.0966 -0.0330
    1DIPC   D3B22535  22.440  13.580   3.619  0.0390  0.3054  0.1337
    1DIPC   C4B22536  22.698  13.223   3.769  0.0744 -0.3904 -0.2354
    1DIPC   NC322537  27.522  18.071   2.672  0.2497 -0.2080  0.0273
    1DIPC   PO422538  27.572  17.666   2.488  0.0380  0.0500 -0.0474
    1DIPC   GL122539  27.696  17.680   2.941  0.2363  0.1884  0.0035
    1DIPC   GL222540  27.942  17.470   3.160  0.1009 -0.1096 -0.0943
    1DIPC   C1A22541  27.498  17.666   3.368  0.0075 -0.2350 -0.0691
    1DIPC   D2A22542  27.557  17.291   3.682 -0.1621  0.2394 -0.0315
    1DIPC   D3A22543  27.356  16.894   3.588 -0.0179  0.2716 -0.2307
    1DIPC   C4A22544  27.349  16.549   3.786  0.1346 -0.1430  0.1488
    1DIPC   C1B22545  28.219  17.467   3.451 -0.2040  0.5969  0.1977
    1DIPC   D2B22546  28.425  17.832   3.555 -0.1145 -0.1394  0.0296
    1DIPC   D3B22547  28.915  17.678   3.432  0.2160 -0.0017 -0.2111
    1DIPC   C4B22548  29.245  17.681   3.796  0.0540  0.3020  0.2244
    1DIPC   NC322549  25.730   5.966   2.953 -0.2321  0.1057 -0.0964
    1DIPC   PO422550  25.264   5.964   2.946 -0.0156  0.1149  0.0459
    1DIPC   GL122551  25.468   5.662   3.303  0.3409  0.0023  0.0778
    1DIPC   GL222552  25.245   5.487   3.449 -0.3014 -0.2499  0.3641
    1DIPC   C1A22553  25.604   5.704   3.721  0.0332 -0.0717 -0.2563
    1DIPC   D2A22554  26.001   5.586   3.950 -0.0577 -0.1233 -0.1453
    1DIPC   D3A22555  26.420   5.787   3.868 -0.1589 -0.2862 -0.0044
    1DIPC   C4A22556  26.570   6.131   3.874 -0.0526  0.2311 -0.2210
    1DIPC   C1B22557  25.167   5.939   3.539 -0.2366  0.0824  0.3248
    1DIPC   D2B22558  24.998   6.268   3.231  0.2598 -0.1539  0.1577
    1DIPC   D3B22559  24.909   6.308   3.730 -0.0159 -0.1191  0.0917
    1DIPC   C4B22560  25.140   6.109   4.013  0.0293 -0.2152  0.4133
    1DIPC   NC322561  26.177  25.283   2.823  0.3744 -0.1891  0.0555
    1DIPC   PO422562  26.050  25.432   3.225  0.0445 -0.0529 -0.1580
    1DIPC   GL122563  25.918  25.450   3.675  0.3137 -0.2989 -0.2087
    1DIPC   GL222564  26.032  25.728   3.855 -0.1775  0.2669  0.2311
    1DIPC   C1A22565  25.862  25.244   4.013 -0.2084 -0.0282 -0.1031
    1DIPC   D2A22566  25.829  25.068   4.489 -0.1533 -0.1547 -0.1250
    1DIPC   D3A22567  26.177  24.874   4.681 -0.1848 -0.3757  0.0957
    1DIPC   C4A22568  26.065  24.444   4.466  0.1596  0.0788 -0.3459
    1DIPC   C1B22569  25.912  25.661   4.302 -0.0345  0.0068 -0.0290
    1DIPC   D2B22570  25.838  25.625   4.821  0.3326  0.1848  0.0108
    1DIPC   D3B22571  25.455  25.570   5.137 -0.0110  0.0738 -0.2193
    1DIPC   C4B22572  25.210  25.256   5.260  0.0183  0.1533 -0.2429
    1DIPC   NC322573  13.069   5.066   3.977 -0.0329 -0.0194  0.0399
    1DIPC   PO422574  13.226   4.924   4.365 -0.2233 -0.2455 -0.0667
    1DIPC   GL122575  12.998   4.835   4.693 -0.0258  0.1242 -0.0723
    1DIPC   GL222576  13.065   5.117   4.857 -0.1824 -0.1593  0.1664
    1DIPC   C1A22577  12.881   4.539   5.071  0.0449  0.0768 -0.1314
    1DIPC   D2A22578  12.797   4.262   5.450  0.0110 -0.2277  0.0713
    1DIPC   D3A22579  12.560   4.499   5.751 -0.2417  0.1243 -0.3672
    1DIPC   C4A22580  12.238   4.755   5.684 -0.1815 -0.6438  0.0512
    1DIPC   C1B22581  13.306   5.071   5.303 -0.1265  0.0325 -0.3697
    1DIPC   D2B22582  13.687   4.768   5.444  0.1746 -0.2021  0.1428
    1DIPC   D3B22583  13.739   4.944   5.804  0.3524  0.0606 -0.1402
    1DIPC   C4B22584  13.839   5.320   5.986  0.2484 -0.2869 -0.1323
    1DIPC   NC322585  16.457   5.980   3.341  0.2203 -0.1156 -0.1320
    1DIPC   PO422586  16.289   5.752   3.594 -0.1567  0.0305  0.1464
    1DIPC   GL122587  16.263   5.797   4.092  0.0586  0.0260  0.1119
    1DIPC   GL222588  16.105   5.738   4.303 -0.3486  0.3330  0.0187
    1DIPC   C1A22589  16.569   5.981   4.281 -0.1712 -0.2438 -0.0549
    1DIPC   D2A22590  17.055   6.041   4.254  0.1099  0.0299 -0.0114
    1DIPC   D3A22591  17.150   5.579   4.306  0.0218 -0.3155  0.1902
    1DIPC   C4A22592  17.336   5.497   4.672  0.2200  0.3131  0.1396
    1DIPC   C1B22593  16.363   5.652   4.697  0.0143  0.0365  0.0678
    1DIPC   D2B22594  16.470   5.685   5.177  0.0493  0.0257  0.2858
    1DIPC   D3B22595  16.290   5.305   5.338 -0.3619  0.0542 -0.1109
    1DIPC   C4B22596  15.960   5.107   5.408  0.2032 -0.3540 -0.0822
    1DIPC   NC322597   4.243   5.886   2.455  0.0850 -0.1860  0.0519
    1DIPC   PO422598   3.909   6.051   2.620 -0.3200  0.0384  0.2222
    1DIPC   GL122599   3.728   6.002   3.036  0.2419 -0.1412 -0.0486
    1DIPC   GL222600   3.513   5.791   3.197 -0.0527  0.4657  0.2509
    1DIPC   C1A22601   3.584   6.161   3.487 -0.2361 -0.2764  0.0398
    1DIPC   D2A22602   3.801   6.362   3.860 -0.0387 -0.0282 -0.2243
    1DIPC   D3A22603   3.951   6.271   4.181  0.0655  0.1450  0.0610
    1DIPC   C4A22604   3.981   6.508   4.535  0.2626 -0.0303 -0.2382
    1DIPC   C1B22605   3.482   5.582   3.660  0.0491 -0.1421 -0.0534
    1DIPC   D2B22606   3.222   5.321   3.885  0.0700  0.0661  0.0265
    1DIPC   D3B22607   3.026   5.678   3.956  0.0059 -0.3069  0.0520
    1DIPC   C4B22608   3.097   5.904   4.338 -0.0576 -0.2224  0.2313
    1DIPC   NC322609  26.743  12.323   2.704  0.2642 -0.1721  0.1537
    1DIPC   PO422610  26.918  12.155   3.117 -0.0449 -0.2302  0.0773
    1DIPC   GL122611  26.831  12.512   3.384  0.0460 -0.1089  0.0881
    1DIPC   GL222612  26.835  12.720   3.065  0.1527 -0.0449 -0.1242
    1DIPC   C1A22613  26.564  12.540   3.636 -0.0090 -0.1342 -0.0653
    1DIPC   D2A22614  26.654  12.832   3.978  0.1714  0.1007  0.0675
    1DIPC   D3A22615  26.617  12.648   4.358  0.2249  0.0898  0.1631
    1DIPC   C4A22616  26.348  12.372   4.453 -0.6006 -0.0305 -0.2443
    1DIPC   C1B22617  26.464  12.851   3.254 -0.1904  0.1210 -0.1335
    1DIPC   D2B22618  26.261  12.920   3.708 -0.0386 -0.2668  0.2181
    1DIPC   D3B22619  26.219  12.619   4.035 -0.2755  0.0245 -0.1319
    1DIPC   C4B22620  26.454  12.212   3.943  0.0859  0.2646  0.0178
    1DIPC   NC322621   4.137  15.459   2.087 -0.2752 -0.1272  0.0693
    1DIPC   PO422622   4.076  15.328   2.522  0.0126  0.0681  0.2815
    1DIPC   GL122623   3.936  15.215   3.022 -0.0731  0.0995  0.1818
    1DIPC   GL222624   3.621  15.270   3.027  0.2275  0.2062  0.0991
    1DIPC   C1A22625   3.922  14.901   3.355 -0.0675 -0.0202 -0.0886
    1DIPC   D2A22626   3.762  14.394   3.375  0.0414  0.1015  0.2824
    1DIPC   D3A22627   3.996  14.512   3.733  0.0652  0.0370 -0.1789
    1DIPC   C4A22628   3.771  14.405   4.077  0.2719 -0.1231 -0.1187
    1DIPC   C1B22629   3.512  15.114   3.444 -0.1855  0.0817  0.3450
    1DIPC   D2B22630   3.587  15.175   3.792  0.2465  0.1842 -0.0901
    1DIPC   D3B22631   3.911  14.976   3.938 -0.0030  0.0903  0.2605
    1DIPC   C4B22632   4.178  15.156   4.206  0.1941 -0.1968 -0.2317
    1DIPC   NC322633  22.863   1.534   2.415  0.1385 -0.0031  0.2195
    1DIPC   PO422634  22.652   1.161   2.604  0.3455  0.3032  0.2141
    1DIPC   GL122635  22.863   1.249   2.992  0.1288 -0.0959  0.4267
    1DIPC   GL222636  22.852   1.647   2.938 -0.2396 -0.1984 -0.4077
    1DIPC   C1A22637  23.049   1.262   3.302 -0.0669  0.0715 -0.0894
    1DIPC   D2A22638  23.139   1.206   3.801 -0.1259  0.0346  0.1753
    1DIPC   D3A22639  22.727   0.860   3.890  0.1505 -0.0430 -0.1477
    1DIPC   C4A22640  22.755   0.880   4.326  0.1884 -0.0813 -0.1338
    1DIPC   C1B22641  22.616   1.793   3.349  0.0202  0.1794 -0.0033
    1DIPC   D2B22642  22.347   1.859   3.717 -0.0561 -0.0864 -0.1854
    1DIPC   D3B22643  22.127   2.231   3.880  0.1505 -0.0180  0.1008
    1DIPC   C4B22644  21.762   2.285   3.687 -0.0872  0.0615  0.2791
    1DIPC   NC322645   9.700   3.510   3.636 -0.2762 -0.0421 -0.0477
    1DIPC   PO422646   9.260   3.171   3.458  0.1668  0.0624  0.0546
    1DIPC   GL122647   9.126   3.265   3.856  0.3632  0.1446 -0.1301
    1DIPC   GL222648   8.810   3.242   3.770 -0.0151 -0.1120  0.0808
    1DIPC   C1A22649   9.259   3.315   4.312 -0.2247  0.0833  0.1693
    1DIPC   D2A22650   8.970   3.207   4.704  0.1159  0.3198  0.0307
    1DIPC   D3A22651   8.685   3.447   4.717  0.1265 -0.2195 -0.0916
    1DIPC   C4A22652   8.212   3.220   4.555 -0.6199 -0.4382 -0.1320
    1DIPC   C1B22653   8.721   3.181   4.200 -0.2795  0.1335  0.0842
    1DIPC   D2B22654   8.566   2.887   4.428 -0.0954  0.0571 -0.0875
    1DIPC   D3B22655   8.470   2.961   4.917 -0.0806  0.0752  0.0105
    1DIPC   C4B22656   8.477   2.586   5.216 -0.0587 -0.0460 -0.3819
    1DIPC   NC322657   9.642   4.874   3.580  0.2054 -0.1843  0.0461
    1DIPC   PO422658   9.549   4.454   3.841  0.1153 -0.3237  0.0475
    1DIPC   GL122659   9.799   4.341   4.172 -0.0941 -0.2139 -0.0855
    1DIPC   GL222660   9.854   4.012   4.291  0.1118 -0.0247  0.0057
    1DIPC   C1A22661   9.910   4.313   4.706  0.0744 -0.3278  0.0298
    1DIPC   D2A22662   9.810   4.098   5.115 -0.2417  0.0077  0.2337
    1DIPC   D3A22663   9.736   4.332   5.580 -0.0835  0.0269  0.0231
    1DIPC   C4A22664   9.796   4.444   6.019  0.1802 -0.1643  0.0784
    1DIPC   C1B22665   9.566   3.870   4.523  0.0825  0.2131 -0.1292
    1DIPC   D2B22666   9.363   3.472   4.798  0.2078 -0.1216  0.1056
    1DIPC   D3B22667   9.664   3.599   5.095  0.0748  0.0122 -0.2904
    1DIPC   C4B22668   9.511   3.594   5.559  0.0263  0.0919 -0.0696
    1DIPC   NC322669  28.439  18.279   1.882  0.0303 -0.0682 -0.0823
    1DIPC   PO422670  28.309  18.437   2.341 -0.0167 -0.1946  0.1090
    1DIPC   GL122671  28.354  18.777   2.731  0.0496 -0.0416  0.0878
    1DIPC   GL222672  28.296  18.503   2.886  0.1786 -0.0122  0.1686
    1DIPC   C1A22673  28.415  18.899   3.154  0.4044 -0.2866 -0.2439
    1DIPC   D2A22674  28.502  19.308   3.388 -0.1252  0.1499 -0.1385
    1DIPC   D3A22675  28.048  19.407   3.379 -0.1527 -0.0162 -0.0564
    1DIPC   C4A22676  27.765  19.115   3.307  0.1442  0.0406 -0.3485
    1DIPC   C1B22677  28.415  18.366   3.249  0.2017 -0.0959  0.0918
    1DIPC   D2B22678  28.363  18.336   3.664  0.1209 -0.0641 -0.2489
    1DIPC   D3B22679  28.044  18.230   3.675  0.2132  0.0906  0.1914
    1DIPC   C4B22680  27.953  17.911   3.463 -0.1319 -0.2744 -0.1341
    1DIPC   NC322681  17.549   3.045   3.110  0.0129 -0.0402  0.1267
    1DIPC   PO422682  17.381   2.693   3.236  0.3223 -0.0336 -0.0401
    1DIPC   GL122683  17.205   2.600   3.712  0.1302 -0.1852  0.2298
    1DIPC   GL222684  17.046   2.299   3.917 -0.0736  0.0324 -0.2100
    1DIPC   C1A22685  17.060   2.700   4.221 -0.3640 -0.0754  0.0780
    1DIPC   D2A22686  17.143   2.878   4.670  0.0932  0.0126 -0.1272
    1DIPC   D3A22687  17.443   2.694   4.904  0.1338  0.1623  0.3936
    1DIPC   C4A22688  17.812   2.578   4.846 -0.2208 -0.2560 -0.0263
    1DIPC   C1B22689  17.075   2.032   4.395 -0.0602  0.2418  0.2121
    1DIPC   D2B22690  17.267   1.842   4.753  0.0125  0.0084 -0.1112
    1DIPC   D3B22691  17.056   2.224   4.861  0.0766 -0.1204 -0.1632
    1DIPC   C4B22692  16.802   2.441   4.592 -0.1068 -0.1534 -0.0005
    1DIPC   NC322693   7.418   9.657   3.232  0.1045 -0.0164  0.1815
    1DIPC   PO422694   6.968   9.667   3.184  0.0178  0.0874 -0.2535
    1DIPC   GL122695   6.912   9.582   3.598 -0.1383 -0.3243  0.3521
    1DIPC   GL222696   7.178   9.719   3.803 -0.0059  0.2001 -0.0513
    1DIPC   C1A22697   6.601   9.491   3.825  0.4577  0.2297 -0.0975
    1DIPC   D2A22698   6.542   9.253   4.155  0.0773  0.3127 -0.3613
    1DIPC   D3A22699   6.677   9.252   4.505 -0.2383  0.0984 -0.1269
    1DIPC   C4A22700   7.066   9.023   4.571  0.4309 -0.2982  0.1128
    1DIPC   C1B22701   7.513  10.050   3.896 -0.1343  0.0467 -0.1049
    1DIPC   D2B22702   7.808  10.019   4.200 -0.1518 -0.0165  0.0500
    1DIPC   D3B22703   7.793  10.411   4.396 -0.0444  0.3404  0.0033
    1DIPC   C4B22704   7.446  10.328   4.758 -0.0002  0.3042  0.2183
    1DIPC   NC322705   8.241  16.482   1.967  0.1182 -0.1066 -0.0611
    1DIPC   PO422706   8.033  16.466   2.349 -0.4658 -0.1781 -0.2807
    1DIPC   GL122707   7.798  16.479   2.797 -0.1257  0.0697  0.1086
    1DIPC   GL222708   7.408  16.542   2.829  0.0861  0.0525 -0.1106
    1DIPC   C1A22709   7.910  16.240   3.152  0.2437 -0.2771  0.1090
    1DIPC   D2A22710   8.187  16.318   3.512  0.1778 -0.0671  0.0609
    1DIPC   D3A22711   8.006  16.426   3.894 -0.1535 -0.2734 -0.1188
    1DIPC   C4A22712   7.912  16.726   4.141 -0.0897 -0.0809  0.1504
    1DIPC   C1B22713   7.510  16.599   3.282 -0.4954 -0.3089 -0.0645
    1DIPC   D2B22714   7.612  16.756   3.693 -0.2575 -0.1578  0.1860
    1DIPC   D3B22715   7.290  16.761   4.011 -0.0482  0.2246  0.0023
    1DIPC   C4B22716   6.999  16.874   4.310  0.0666 -0.4358 -0.0033
    1DIPC   NC322717   6.174  29.242   3.259  0.1031 -0.0586  0.2139
    1DIPC   PO422718   6.512  29.306   3.416 -0.0138  0.2055  0.2632
    1DIPC   GL122719   6.674  29.414   3.728  0.2174  0.3912  0.0210
    1DIPC   GL222720   6.797  29.177   3.859 -0.0774  0.2371  0.3472
    1DIPC   C1A22721   6.753  29.610   4.167  0.1965  0.0088  0.3162
    1DIPC   D2A22722   6.315  29.529   4.558  0.1589  0.1281  0.0247
    1DIPC   D3A22723   6.187  29.058   4.389 -0.1329  0.2663 -0.1539
    1DIPC   C4A22724   6.454  28.742   4.523  0.4285  0.2397  0.0447
    1DIPC   C1B22725   6.701  29.088   4.248 -0.1033 -0.1601  0.0225
    1DIPC   D2B22726   6.691  29.202   4.665  0.0929  0.1458 -0.1926
    1DIPC   D3B22727   6.824  29.599   4.675 -0.1505 -0.2449 -0.1118
    1DIPC   C4B22728   6.649  29.869   5.089  0.0059 -0.3626  0.2161
    1DIPC   NC322729  14.203  25.404   3.326  0.0961 -0.2252  0.2168
    1DIPC   PO422730  14.096  24.938   3.454  0.3130  0.1583 -0.1213
    1DIPC   GL122731  13.911  25.021   3.831 -0.0212 -0.1329  0.1098
    1DIPC   GL222732  13.718  24.803   3.900  0.0041 -0.5095  0.3421
    1DIPC   C1A22733  13.803  25.270   4.243 -0.0797 -0.3950 -0.0506
    1DIPC   D2A22734  13.886  25.212   4.690 -0.2773  0.3955  0.3660
    1DIPC   D3A22735  13.693  24.797   4.943  0.0480  0.1629 -0.1671
    1DIPC   C4A22736  14.024  24.879   5.280 -0.1655 -0.0611 -0.2657
    1DIPC   C1B22737  13.481  24.793   4.298  0.1173  0.0448  0.0130
    1DIPC   D2B22738  13.268  24.922   4.710  0.0815  0.0937  0.1911
    1DIPC   D3B22739  13.075  24.530   4.908 -0.0542  0.2346  0.1318
    1DIPC   C4B22740  12.671  24.544   4.882  0.3644 -0.0364  0.2904
    1DIPC   NC322741  28.608  24.067   2.746  0.1055  0.1582 -0.3277
    1DIPC   PO422742  28.912  23.748   2.889 -0.0276 -0.3191  0.0578
    1DIPC   GL122743  29.067  23.551   3.296  0.1826 -0.1619 -0.1867
    1DIPC   GL222744  29.391  23.452   3.297 -0.1162  0.2850 -0.2418
    1DIPC   C1A22745  28.937  23.285   3.604 -0.1050 -0.0482 -0.0562
    1DIPC   D2A22746  29.250  23.266   3.942 -0.1496  0.0657 -0.0119
    1DIPC   D3A22747  29.468  23.539   4.271 -0.1885 -0.0601 -0.0187
    1DIPC   C4A22748  29.452  23.917   4.594  0.1023 -0.2053  0.1037
    1DIPC   C1B22749  29.624  23.571   3.673 -0.4016  0.2580 -0.2373
    1DIPC   D2B22750  29.945  23.849   3.829 -0.1119  0.0028  0.3220
    1DIPC   D3B22751  29.947  23.749   4.277 -0.1391 -0.0696  0.0291
    1DIPC   C4B22752  30.298  24.036   4.375 -0.1352  0.3150  0.1567
    1DIPC   NC322753   0.368   7.986   2.642  0.1720 -0.1941  0.3209
    1DIPC   PO422754   0.009   7.849   2.762  0.0173  0.1470  0.4217
    1DIPC   GL122755   0.089   8.127   3.094 -0.0224 -0.3287 -0.0304
    1DIPC   GL222756   0.336   8.313   3.262  0.0110  0.4092  0.0309
    1DIPC   C1A22757   0.159   7.963   3.540  0.1025  0.2825 -0.1666
    1DIPC   D2A22758   0.372   7.924   4.046 -0.0228  0.3047  0.0415
    1DIPC   D3A22759   0.401   7.651   4.418  0.1506  0.0788  0.1767
    1DIPC   C4A22760   0.163   7.331   4.248  0.2894 -0.0447  0.2469
    1DIPC   C1B22761  -0.118   8.461   3.457  0.1348  0.0552 -0.2637
    1DIPC   D2B22762  -0.432   8.731   3.570  0.0089 -0.1468  0.2539
    1DIPC   D3B22763  -0.487   9.049   3.788 -0.0158 -0.1150 -0.0360
    1DIPC   C4B22764  -0.556   8.986   4.275 -0.1585 -0.1991 -0.1746
    1DIPC   NC322765  28.541   1.953   3.112  0.1847 -0.1237 -0.0165
    1DIPC   PO422766  28.136   2.024   3.315  0.2438 -0.2187  0.0152
    1DIPC   GL122767  27.959   1.747   3.747  0.1873 -0.1791 -0.1682
    1DIPC   GL222768  28.139   1.400   3.709  0.1658  0.2438 -0.2156
    1DIPC   C1A22769  28.079   1.739   4.145 -0.2908 -0.0080  0.1356
    1DIPC   D2A22770  28.242   2.007   4.488 -0.5041 -0.2182 -0.1108
    1DIPC   D3A22771  28.408   1.902   4.883 -0.1884 -0.5069  0.3631
    1DIPC   C4A22772  28.071   1.803   5.262 -0.2943  0.0241 -0.0529
    1DIPC   C1B22773  28.130   1.141   4.167 -0.1580  0.0198 -0.1365
    1DIPC   D2B22774  28.385   0.880   4.448 -0.1087 -0.2152 -0.2841
    1DIPC   D3B22775  28.009   0.674   4.428  0.2512  0.1363  0.1681
    1DIPC   C4B22776  27.912   0.332   4.590 -0.0406 -0.3396  0.1841
    1DIPC   NC322777  28.983  28.457   2.684  0.3121  0.2565 -0.0849
    1DIPC   PO422778  28.859  28.511   3.001  0.0418 -0.0467 -0.0518
    1DIPC   GL122779  28.886  28.575   3.334 -0.2609  0.0274 -0.0344
    1DIPC   GL222780  29.181  28.713   3.422 -0.2442  0.1543  0.4858
    1DIPC   C1A22781  28.832  28.802   3.786  0.0829  0.2467 -0.0560
    1DIPC   D2A22782  28.874  29.254   3.877 -0.1543  0.0848  0.2100
    1DIPC   D3A22783  29.052  29.014   4.213 -0.0082  0.0389 -0.0047
    1DIPC   C4A22784  29.395  28.827   4.203 -0.0002 -0.0107 -0.1827
    1DIPC   C1B22785  29.381  28.871   3.700 -0.3349  0.1091  0.1616
    1DIPC   D2B22786  29.786  28.871   3.826  0.3194  0.2711  0.0717
    1DIPC   D3B22787  29.806  29.091   4.148  0.2092 -0.2993 -0.1800
    1DIPC   C4B22788  29.948  29.443   4.053 -0.3197  0.1983 -0.1333
    1DIPC   NC322789  22.802   8.317   2.737  0.0748 -0.1034  0.4410
    1DIPC   PO422790  23.031   8.723   2.835  0.1267 -0.0602 -0.1142
    1DIPC   GL122791  23.091   8.497   3.262 -0.2948 -0.0510  0.1700
    1DIPC   GL222792  22.791   8.400   3.286 -0.1927 -0.0774  0.1350
    1DIPC   C1A22793  22.816   8.706   3.760  0.1922  0.0482 -0.1780
    1DIPC   D2A22794  22.853   8.792   4.223 -0.1686  0.0844  0.2364
    1DIPC   D3A22795  22.570   8.743   4.579 -0.0446 -0.1358  0.4998
    1DIPC   C4A22796  22.726   8.602   4.963 -0.1687  0.1839  0.2365
    1DIPC   C1B22797  22.532   8.251   3.683 -0.3131  0.2692 -0.0997
    1DIPC   D2B22798  22.554   8.369   4.152  0.2552 -0.1600 -0.4186
    1DIPC   D3B22799  22.203   8.195   4.504  0.2547  0.3120 -0.3440
    1DIPC   C4B22800  22.289   8.224   4.975 -0.0604  0.1497 -0.0814
    1DIPC   NC322801   3.966  10.215   3.094  0.1167  0.1041 -0.1209
    1DIPC   PO422802   3.702  10.538   2.836  0.0688  0.3434  0.0706
    1DIPC   GL122803   3.437  10.457   3.164 -0.0027  0.1133  0.0347
    1DIPC   GL222804   3.542  10.444   3.353  0.2885  0.0552  0.0404
    1DIPC   C1A22805   3.131  10.097   3.393 -0.0819 -0.1192  0.2615
    1DIPC   D2A22806   3.047  10.055   3.800  0.0056 -0.2068  0.2673
    1DIPC   D3A22807   2.705  10.250   3.809 -0.1321  0.0373 -0.2104
    1DIPC   C4A22808   2.369   9.980   3.938  0.0289  0.0346  0.0261
    1DIPC   C1B22809   3.490  10.270   3.736  0.0045  0.1002  0.0454
    1DIPC   D2B22810   3.562  10.222   4.181 -0.0467 -0.0619  0.0961
    1DIPC   D3B22811   4.014  10.090   4.163  0.1749 -0.1695  0.2570
    1DIPC   C4B22812   4.408  10.243   4.378 -0.1363 -0.0071  0.0377
    1DIPC   NC322813   2.032  13.213   2.195 -0.1737  0.2489  0.0563
    1DIPC   PO422814   1.758  13.034   2.501 -0.0555  0.5258 -0.0145
    1DIPC   GL122815   1.723  12.924   2.924 -0.1595 -0.2786 -0.0391
    1DIPC   GL222816   2.073  12.905   3.158 -0.1911  0.4576 -0.1647
    1DIPC   C1A22817   1.496  12.827   3.246  0.2652  0.3028 -0.1423
    1DIPC   D2A22818   1.190  12.621   3.568 -0.0305  0.1165  0.2198
    1DIPC   D3A22819   1.124  12.190   3.675 -0.0789 -0.1075  0.1579
    1DIPC   C4A22820   0.687  11.896   3.701 -0.0297  0.2068  0.2906
    1DIPC   C1B22821   1.863  12.657   3.550 -0.0592 -0.2082  0.1496
    1DIPC   D2B22822   1.674  12.316   3.733 -0.0881 -0.1109 -0.2155
    1DIPC   D3B22823   2.151  12.325   3.851 -0.1738 -0.2503  0.1315
    1DIPC   C4B22824   2.441  12.293   4.166  0.4420  0.1607  0.2219
    1DIPC   NC322825   4.088  27.291   3.133 -0.1147 -0.1245  0.1000
    1DIPC   PO422826   4.058  26.857   3.071  0.0430 -0.1072  0.3213
    1DIPC   GL122827   3.984  26.886   3.487  0.1417 -0.1452 -0.0580
    1DIPC   GL222828   3.792  27.032   3.501 -0.2961  0.0421 -0.0992
    1DIPC   C1A22829   4.159  26.665   3.767  0.0207  0.1982  0.0461
    1DIPC   D2A22830   4.376  26.536   4.189 -0.0379  0.0423 -0.0465
    1DIPC   D3A22831   4.812  26.647   4.288  0.0643  0.0374 -0.1462
    1DIPC   C4A22832   5.033  26.532   4.568 -0.0441  0.1587  0.0904
    1DIPC   C1B22833   3.809  27.085   3.959 -0.3539 -0.0643 -0.2841
    1DIPC   D2B22834   3.541  27.192   4.223  0.0310 -0.2864 -0.1856
    1DIPC   D3B22835   3.902  27.355   4.513  0.0059 -0.2733  0.1279
    1DIPC   C4B22836   3.866  27.694   4.808  0.1721 -0.2215 -0.1169
    1DIPC   NC322837  27.133   2.930   2.855 -0.1657  0.0932 -0.0747
    1DIPC   PO422838  27.200   3.369   2.919 -0.3064 -0.6184  0.0713
    1DIPC   GL122839  27.351   3.162   3.322  0.3187  0.1699 -0.1057
    1DIPC   GL222840  27.652   3.092   3.489  0.0050 -0.3534  0.3528
    1DIPC   C1A22841  27.142   2.880   3.548  0.3511  0.2178 -0.0395
    1DIPC   D2A22842  27.203   2.541   3.796  0.0401  0.0436 -0.2355
    1DIPC   D3A22843  26.873   2.755   4.068  0.1289  0.2323  0.1598
    1DIPC   C4A22844  27.068   2.833   4.500 -0.2053  0.0965 -0.3636
    1DIPC   C1B22845  27.440   3.444   3.735 -0.0538 -0.0440 -0.1075
    1DIPC   D2B22846  26.941   3.538   3.774  0.3298  0.0193 -0.1351
    1DIPC   D3B22847  26.767   3.834   4.060 -0.2099 -0.1939  0.0463
    1DIPC   C4B22848  26.338   3.630   4.292 -0.1821 -0.0837 -0.0523
    1DIPC   NC322849  22.802  19.007   3.099 -0.2111  0.1395 -0.1915
    1DIPC   PO422850  22.635  19.398   3.270 -0.0907  0.3358 -0.2466
    1DIPC   GL122851  22.812  19.558   3.639  0.2460  0.0112 -0.0216
    1DIPC   GL222852  22.597  19.574   3.834 -0.2372 -0.1938  0.0075
    1DIPC   C1A22853  23.008  19.890   4.017  0.0711  0.1502 -0.0536
    1DIPC   D2A22854  23.315  20.264   4.061  0.1049 -0.2285 -0.1093
    1DIPC   D3A22855  23.471  20.571   4.267  0.1109 -0.3720  0.3174
    1DIPC   C4A22856  23.141  20.861   4.504 -0.0297 -0.0720  0.0949
    1DIPC   C1B22857  22.359  19.563   4.229 -0.0776  0.1247 -0.2923
    1DIPC   D2B22858  22.446  19.834   4.620 -0.1692 -0.0047 -0.0274
    1DIPC   D3B22859  22.167  19.786   4.903  0.0556  0.3326 -0.1524
    1DIPC   C4B22860  22.011  19.467   4.980 -0.2194  0.2686  0.3030
    1DIPC   NC322861  11.103   7.702   3.350 -0.2665 -0.2153  0.1288
    1DIPC   PO422862  11.256   7.316   3.140  0.0396  0.0270  0.2808
    1DIPC   GL122863  11.168   7.015   3.522 -0.0308 -0.1043 -0.2043
    1DIPC   GL222864  11.066   7.230   3.735 -0.2821  0.2131  0.0100
    1DIPC   C1A22865  11.343   6.794   3.852  0.0926  0.2010  0.0026
    1DIPC   D2A22866  11.644   6.377   3.755 -0.1266  0.0159  0.0631
    1DIPC   D3A22867  11.432   6.328   4.096  0.0281 -0.0502 -0.0837
    1DIPC   C4A22868  11.274   6.622   4.401  0.0167  0.1172  0.0064
    1DIPC   C1B22869  11.141   7.078   4.206  0.1440 -0.2437 -0.0546
    1DIPC   D2B22870  11.201   7.055   4.620 -0.0611  0.2446 -0.0530
    1DIPC   D3B22871  11.620   6.847   4.707 -0.0856 -0.0469 -0.0763
    1DIPC   C4B22872  11.716   6.661   5.037 -0.0572 -0.3074  0.0237
    1DIPC   NC322873  11.557  28.547   3.719 -0.1072  0.0605  0.1382
    1DIPC   PO422874  12.008  28.590   3.791 -0.2661 -0.0839 -0.2749
    1DIPC   GL122875  11.989  28.533   4.138 -0.0725  0.0006 -0.0199
    1DIPC   GL222876  12.191  28.377   4.339  0.0655 -0.1463  0.1814
    1DIPC   C1A22877  11.821  28.592   4.526 -0.2755 -0.0022  0.0035
    1DIPC   D2A22878  11.874  28.471   5.050 -0.2770 -0.2562  0.1593
    1DIPC   D3A22879  11.676  28.303   5.455  0.0670 -0.0704  0.0638
    1DIPC   C4A22880  11.795  28.407   5.873  0.0008 -0.3991  0.0250
    1DIPC   C1B22881  12.304  28.457   4.716  0.1997 -0.2356  0.0514
    1DIPC   D2B22882  12.539  28.561   5.111  0.0206 -0.0288 -0.0632
    1DIPC   D3B22883  12.379  28.207   5.181 -0.1631  0.3483 -0.0188
    1DIPC   C4B22884  12.308  27.906   4.860  0.0446  0.1038 -0.2573
    1DIPC   NC322885   1.247  12.863   2.612 -0.0787  0.0966 -0.2039
    1DIPC   PO422886   1.081  12.507   2.936  0.0071  0.3776  0.1814
    1DIPC   GL122887   0.878  12.792   3.195  0.0969 -0.3014  0.2853
    1DIPC   GL222888   0.590  13.103   3.016  0.2039  0.2989  0.2794
    1DIPC   C1A22889   0.953  13.049   3.616 -0.3850  0.0544  0.0108
    1DIPC   D2A22890   0.703  13.139   3.917 -0.0196  0.0162 -0.0732
    1DIPC   D3A22891   0.361  13.337   3.781 -0.1226 -0.3094  0.0968
    1DIPC   C4A22892   0.017  13.322   4.059 -0.0799  0.0562  0.0616
    1DIPC   C1B22893   0.411  12.936   3.427  0.1826 -0.2051 -0.2382
    1DIPC   D2B22894   0.131  12.843   3.777 -0.0900 -0.0327  0.0894
    1DIPC   D3B22895   0.289  12.940   4.151  0.1803  0.1968  0.4620
    1DIPC   C4B22896   0.103  12.625   4.519  0.0054  0.0800 -0.1063
    1DIPC   NC322897  21.037   7.822   3.507  0.0459  0.1865  0.0783
    1DIPC   PO422898  21.260   8.129   3.628 -0.2095 -0.0108  0.1484
    1DIPC   GL122899  21.297   7.867   3.968 -0.0544  0.1063  0.0098
    1DIPC   GL222900  21.407   8.153   4.052  0.3964 -0.0881  0.1018
    1DIPC   C1A22901  21.072   7.945   4.377  0.1177  0.0814  0.0682
    1DIPC   D2A22902  21.379   8.206   4.569  0.1027  0.0126  0.1605
    1DIPC   D3A22903  21.105   8.479   4.518  0.2579 -0.0179  0.0277
    1DIPC   C4A22904  21.313   8.785   4.557  0.0820 -0.0292  0.2391
    1DIPC   C1B22905  21.790   8.126   4.212 -0.1648 -0.0408  0.3464
    1DIPC   D2B22906  22.141   7.943   3.977 -0.1348 -0.0280  0.2177
    1DIPC   D3B22907  22.069   8.409   3.880  0.0815  0.2806 -0.0440
    1DIPC   C4B22908  22.136   8.623   4.280  0.2013  0.0733  0.0893
    1DIPC   NC322909   9.802  24.216   2.088  0.0055 -0.1334  0.0905
    1DIPC   PO422910   9.677  23.868   1.879  0.1494  0.0015  0.0593
    1DIPC   GL122911   9.523  23.668   2.350  0.3563  0.2274 -0.1372
    1DIPC   GL222912   9.727  23.426   2.295 -0.0846 -0.5662 -0.1333
    1DIPC   C1A22913   9.327  23.732   2.694 -0.0674 -0.3041 -0.0979
    1DIPC   D2A22914   9.238  23.646   3.153 -0.3637  0.1666  0.2390
    1DIPC   D3A22915   9.419  23.592   3.523  0.1536 -0.2068  0.1587
    1DIPC   C4A22916   9.397  23.569   3.959 -0.0444  0.1664 -0.1024
    1DIPC   C1B22917   9.644  23.291   2.683  0.0345  0.3688 -0.1955
    1DIPC   D2B22918   9.888  23.178   3.003  0.1078  0.2016  0.1858
    1DIPC   D3B22919   9.795  22.801   3.082 -0.0947 -0.1981 -0.2333
    1DIPC   C4B22920   9.474  22.631   2.770 -0.2158 -0.0528 -0.2374
    1DIPC   NC322921   5.576   3.008   3.051 -0.1370 -0.0374  0.0325
    1DIPC   PO422922   5.165   2.869   2.964 -0.2675  0.2303 -0.3276
    1DIPC   GL122923   5.174   3.034   3.323  0.3380 -0.1334 -0.0466
    1DIPC   GL222924   4.894   2.835   3.360 -0.1088 -0.1171  0.0470
    1DIPC   C1A22925   5.212   3.190   3.770 -0.0913  0.2859 -0.1201
    1DIPC   D2A22926   4.959   3.021   4.086  0.0996  0.2261 -0.0370
    1DIPC   D3A22927   4.809   2.759   4.475 -0.0487  0.2916 -0.0048
    1DIPC   C4A22928   4.482   2.905   4.775  0.1000  0.0238  0.2706
    1DIPC   C1B22929   5.064   2.636   3.677  0.0559 -0.0760  0.1486
    1DIPC   D2B22930   5.388   2.666   3.907  0.0296 -0.0954 -0.0788
    1DIPC   D3B22931   5.174   2.476   4.303 -0.0226 -0.0977 -0.2000
    1DIPC   C4B22932   5.223   2.109   4.517 -0.0148  0.0773 -0.0947
    1DIPC   NC322933  24.919  24.171   3.195  0.0039  0.0171 -0.3858
    1DIPC   PO422934  25.188  23.872   3.095  0.1380  0.1135 -0.2952
    1DIPC   GL122935  25.369  23.833   3.384  0.4423  0.1075 -0.0425
    1DIPC   GL222936  25.675  24.000   3.561  0.2949 -0.0772 -0.0348
    1DIPC   C1A22937  25.403  23.682   3.806  0.3781 -0.0116 -0.1082
    1DIPC   D2A22938  25.449  23.620   4.256 -0.0849 -0.1243  0.0855
    1DIPC   D3A22939  25.507  23.149   4.339 -0.1172 -0.0843  0.1873
    1DIPC   C4A22940  25.439  22.925   4.041  0.1584  0.4506  0.2671
    1DIPC   C1B22941  25.478  24.191   3.951  0.3719 -0.0039  0.0218
    1DIPC   D2B22942  25.255  24.429   4.288 -0.1689  0.0455 -0.0191
    1DIPC   D3B22943  24.848  24.404   4.414 -0.1053 -0.0274  0.1296
    1DIPC   C4B22944  24.632  24.182   4.892  0.3259 -0.1871 -0.3587
    1DIPC   NC322945  26.732  24.344   2.900 -0.1163 -0.1470  0.0963
    1DIPC   PO422946  26.654  23.998   3.136  0.1577  0.2759  0.0389
    1DIPC   GL122947  26.681  23.991   3.493 -0.1847 -0.1354 -0.2789
    1DIPC   GL222948  26.451  23.851   3.566 -0.2293 -0.0861 -0.3009
    1DIPC   C1A22949  26.815  24.334   3.882 -0.1245  0.1423 -0.1450
    1DIPC   D2A22950  26.707  24.414   4.311 -0.0047 -0.0228  0.0578
    1DIPC   D3A22951  26.533  24.469   4.622 -0.1794  0.1693  0.1006
    1DIPC   C4A22952  26.536  24.069   4.954 -0.2387  0.0569  0.0962
    1DIPC   C1B22953  26.454  23.692   3.917 -0.1193 -0.0657 -0.2105
    1DIPC   D2B22954  26.275  23.548   4.297  0.3029  0.0164 -0.0365
    1DIPC   D3B22955  25.882  23.643   4.474 -0.1101 -0.1671 -0.1890
    1DIPC   C4B22956  25.679  23.717   4.942 -0.0980 -0.0196  0.1213
    1DIPC   NC322957   0.736  10.232   2.773  0.2051 -0.1387 -0.0778
    1DIPC   PO422958   0.521   9.877   2.659 -0.0442 -0.0856 -0.0385
    1DIPC   GL122959   0.598   9.763   3.153 -0.1340  0.0802 -0.3596
    1DIPC   GL222960   0.891  10.053   3.262 -0.0476  0.1289  0.0398
    1DIPC   C1A22961   0.674   9.739   3.609  0.1463  0.1934 -0.1089
    1DIPC   D2A22962   1.009   9.420   3.648 -0.0963  0.2534 -0.1714
    1DIPC   D3A22963   1.058   9.213   4.046  0.5031  0.0150  0.2148
    1DIPC   C4A22964   1.121   9.515   4.330  0.0340 -0.1489  0.0539
    1DIPC   C1B22965   1.057  10.043   3.693  0.1667 -0.2643  0.0206
    1DIPC   D2B22966   1.351   9.829   3.917  0.3985 -0.0832  0.0500
    1DIPC   D3B22967   1.074  10.013   4.178  0.1247  0.1732 -0.3521
    1DIPC   C4B22968   0.781   9.877   4.429  0.0366 -0.1121  0.1405
    1DIPC   NC322969  26.277  26.190   2.738  0.1254 -0.1935  0.3965
    1DIPC   PO422970  26.132  26.283   3.246  0.0384 -0.2108 -0.2021
    1DIPC   GL122971  26.372  26.558   3.390 -0.2332 -0.1955  0.1642
    1DIPC   GL222972  26.380  26.857   3.679 -0.0790  0.0622  0.0253
    1DIPC   C1A22973  26.825  26.644   3.484 -0.3465 -0.0705  0.1499
    1DIPC   D2A22974  27.321  26.802   3.529 -0.0923 -0.4173 -0.0676
    1DIPC   D3A22975  27.213  27.060   3.853  0.0636 -0.0231  0.1523
    1DIPC   C4A22976  27.480  27.029   4.230  0.0049 -0.2156 -0.2644
    1DIPC   C1B22977  26.705  26.931   3.937  0.0229  0.1094  0.0431
    1DIPC   D2B22978  26.976  26.779   4.277  0.0724 -0.2324  0.0332
    1DIPC   D3B22979  27.006  27.211   4.281  0.1724  0.0568  0.3157
    1DIPC   C4B22980  26.619  27.433   4.474 -0.1525  0.2013 -0.0287
    1DIPC   NC322981  18.254  25.003   2.930  0.3249 -0.3087 -0.2890
    1DIPC   PO422982  17.933  25.263   3.147  0.0143  0.0269  0.3202
    1DIPC   GL122983  18.100  25.451   3.604 -0.0958  0.0369  0.0437
    1DIPC   GL222984  18.075  25.802   3.707 -0.1584 -0.2017  0.1605
    1DIPC   C1A22985  17.861  25.465   4.049 -0.0664  0.2663 -0.1904
    1DIPC   D2A22986  17.973  25.422   4.480 -0.0333  0.1803  0.0115
    1DIPC   D3A22987  17.805  25.776   4.538 -0.1966  0.0683 -0.0282
    1DIPC   C4A22988  17.584  25.833   4.125  0.0757  0.2145 -0.0713
    1DIPC   C1B22989  18.128  25.902   4.124  0.0165  0.0266  0.0046
    1DIPC   D2B22990  18.249  25.947   4.596  0.1618 -0.1084 -0.0517
    1DIPC   D3B22991  18.428  26.237   4.667  0.1670  0.1020 -0.1024
    1DIPC   C4B22992  18.775  26.197   4.913 -0.1659 -0.3594  0.0290
    1DIPC   NC322993   0.137   1.975   2.522  0.0221  0.1207  0.0238
    1DIPC   PO422994   0.333   2.332   2.624  0.1447  0.1034  0.0965
    1DIPC   GL122995   0.449   2.517   3.041 -0.0761  0.1567 -0.1266
    1DIPC   GL222996   0.376   2.777   3.127 -0.3554 -0.2374  0.1983
    1DIPC   C1A22997   0.704   2.602   3.487  0.3685  0.1123  0.1045
    1DIPC   D2A22998   0.904   2.403   3.808  0.2309 -0.1940 -0.0594
    1DIPC   D3A22999   0.628   2.717   4.026 -0.2559 -0.0758  0.1257
    1DIPC   C4A23000   0.778   2.873   4.386 -0.1929  0.0930 -0.0889
    1DIPC   C1B23001   0.250   2.723   3.569 -0.1179  0.0200 -0.2317
    1DIPC   D2B23002   0.184   2.529   3.894  0.1195 -0.0041  0.0764
    1DIPC   D3B23003   0.164   2.826   4.209  0.0999 -0.3866 -0.2314
    1DIPC   C4B23004  -0.097   2.680   4.662 -0.2897  0.2642  0.1540
    1DIPC   NC323005  17.478  28.452   3.355 -0.2484 -0.3016 -0.3237
    1DIPC   PO423006  17.559  28.896   3.454  0.1540 -0.3615 -0.2359
    1DIPC   GL123007  17.618  28.987   3.817 -0.2338 -0.0748  0.1181
    1DIPC   GL223008  17.863  29.092   3.832  0.0718 -0.2081 -0.0094
    1DIPC   C1A23009  17.512  28.829   4.298  0.0944  0.3677 -0.2492
    1DIPC   D2A23010  17.186  28.747   4.644  0.0172  0.0706  0.4647
    1DIPC   D3A23011  17.491  28.825   4.967 -0.0752  0.1450 -0.1117
    1DIPC   C4A23012  17.862  28.876   5.368 -0.0331 -0.4077 -0.1763
    1DIPC   C1B23013  17.787  29.365   4.165  0.0421  0.3413 -0.1962
    1DIPC   D2B23014  17.907  29.631   4.590 -0.2419  0.0562  0.2227
    1DIPC   D3B23015  17.589  29.725   4.893 -0.0739 -0.1713 -0.0476
    1DIPC   C4B23016  17.600  30.050   5.197  0.0075 -0.2996 -0.1549
    1DIPC   NC323017  13.180  26.420   3.903 -0.2934  0.0333  0.0349
    1DIPC   PO423018  13.049  26.110   3.694  0.1778 -0.2100 -0.2872
    1DIPC   GL123019  12.890  25.974   4.098 -0.0006 -0.0764 -0.0502
    1DIPC   GL223020  12.555  25.999   3.956  0.0067 -0.2908  0.5698
    1DIPC   C1A23021  12.799  25.948   4.607 -0.1889  0.0848  0.0100
    1DIPC   D2A23022  12.687  26.251   4.925  0.0358 -0.0461 -0.2552
    1DIPC   D3A23023  12.440  26.220   5.309 -0.0099 -0.5208  0.0914
    1DIPC   C4A23024  12.595  25.897   5.564  0.0215 -0.3447  0.2017
    1DIPC   C1B23025  12.428  25.734   4.401  0.1306 -0.0134 -0.1331
    1DIPC   D2B23026  12.105  25.457   4.722 -0.2472 -0.0360  0.1190
    1DIPC   D3B23027  11.967  25.663   4.335  0.1892 -0.0628 -0.2668
    1DIPC   C4B23028  11.883  25.222   4.122 -0.3348  0.1276 -0.1125
    1DIPC   NC323029  15.235  27.172   3.613 -0.0993  0.0014 -0.2808
    1DIPC   PO423030  15.499  27.305   3.984  0.3573 -0.0170  0.1960
    1DIPC   GL123031  15.350  27.180   4.381  0.0813  0.2872 -0.0101
    1DIPC   GL223032  15.642  27.241   4.466 -0.1784 -0.1090  0.2194
    1DIPC   C1A23033  15.328  27.072   4.889  0.0405 -0.0345  0.0144
    1DIPC   D2A23034  15.021  27.236   5.140 -0.0713  0.2379  0.0640
    1DIPC   D3A23035  15.075  26.903   5.464  0.1358  0.2985 -0.0589
    1DIPC   C4A23036  15.207  26.977   5.832 -0.1136 -0.2358  0.4218
    1DIPC   C1B23037  15.766  27.346   4.866  0.2714  0.2197 -0.1612
    1DIPC   D2B23038  16.137  27.479   4.886 -0.2707  0.0089 -0.0260
    1DIPC   D3B23039  15.961  27.660   5.221  0.0684  0.3044  0.1778
    1DIPC   C4B23040  16.153  27.594   5.642  0.2056 -0.1105  0.1155
    1DIPC   NC323041  28.740  10.363   3.080 -0.1717 -0.2558 -0.0231
    1DIPC   PO423042  28.660   9.926   2.978  0.1162 -0.2000  0.2975
    1DIPC   GL123043  28.479   9.916   3.293 -0.0267 -0.2529 -0.1455
    1DIPC   GL223044  28.146  10.125   3.485  0.1718 -0.2466  0.1560
    1DIPC   C1A23045  28.681   9.876   3.627  0.1263  0.0177  0.1228
    1DIPC   D2A23046  28.777   9.950   4.071  0.1166  0.1355 -0.1441
    1DIPC   D3A23047  29.109   9.865   4.251 -0.1498 -0.0493  0.0745
    1DIPC   C4A23048  29.164   9.422   4.316  0.0684 -0.2525 -0.0187
    1DIPC   C1B23049  28.087  10.021   3.904 -0.0148  0.1603 -0.1977
    1DIPC   D2B23050  27.895  10.224   4.302 -0.0821 -0.2202 -0.2036
    1DIPC   D3B23051  28.143  10.154   4.737 -0.2212 -0.0544  0.0925
    1DIPC   C4B23052  27.977   9.840   5.000 -0.2323 -0.3923 -0.1963
    1DIPC   NC323053   7.466   7.644   3.341 -0.1871 -0.2811 -0.2507
    1DIPC   PO423054   7.889   7.576   3.033 -0.0988 -0.1475  0.0460
    1DIPC   GL123055   8.131   7.534   3.342  0.3469  0.2916 -0.1491
    1DIPC   GL223056   7.990   7.825   3.498 -0.2691  0.1500 -0.0109
    1DIPC   C1A23057   8.409   7.472   3.633  0.3032  0.1051  0.1790
    1DIPC   D2A23058   8.333   7.275   3.946 -0.0539 -0.0355 -0.1615
    1DIPC   D3A23059   8.687   7.003   3.926 -0.6431 -0.0364 -0.1233
    1DIPC   C4A23060   8.956   6.901   4.217 -0.0652  0.0044 -0.0372
    1DIPC   C1B23061   8.090   7.850   3.915 -0.0325 -0.0460  0.1371
    1DIPC   D2B23062   8.384   7.771   4.056 -0.3859 -0.0679 -0.1025
    1DIPC   D3B23063   8.620   7.531   4.383 -0.0905  0.0192  0.2084
    1DIPC   C4B23064   8.545   7.086   4.427 -0.1591 -0.1740 -0.2309
    1DIPC   NC323065   6.578   6.960   2.834  0.2939  0.1290 -0.0073
    1DIPC   PO423066   6.383   7.263   3.106 -0.1405  0.2551 -0.0939
    1DIPC   GL123067   6.164   7.479   3.300  0.0253  0.1380 -0.0109
    1DIPC   GL223068   6.099   7.257   3.617 -0.0322 -0.0172  0.0934
    1DIPC   C1A23069   5.978   7.716   3.685  0.3069  0.1094  0.1632
    1DIPC   D2A23070   5.949   7.587   4.085  0.0885 -0.1043  0.3504
    1DIPC   D3A23071   5.552   7.553   4.206 -0.3286  0.1403 -0.1054
    1DIPC   C4A23072   5.440   7.262   4.537 -0.1273 -0.0887  0.0651
    1DIPC   C1B23073   6.005   7.058   4.005 -0.2530  0.0632 -0.0113
    1DIPC   D2B23074   5.924   7.275   4.415 -0.0037  0.1121  0.1740
    1DIPC   D3B23075   6.350   7.014   4.405 -0.1940 -0.2138  0.0928
    1DIPC   C4B23076   6.364   6.697   4.102 -0.2380 -0.0536  0.2838
    1DIPC   NC323077  15.993  22.549   3.003  0.3395 -0.2483  0.0319
    1DIPC   PO423078  16.355  22.282   3.028 -0.1368  0.1495 -0.1186
    1DIPC   GL123079  16.429  22.558   3.384 -0.0487  0.1449 -0.2117
    1DIPC   GL223080  16.258  22.311   3.521 -0.0317 -0.1954 -0.0933
    1DIPC   C1A23081  16.437  22.836   3.702  0.1703  0.1067  0.2114
    1DIPC   D2A23082  16.596  22.921   4.042  0.2187 -0.0741  0.1090
    1DIPC   D3A23083  16.622  23.016   4.553 -0.0381 -0.1273  0.0680
    1DIPC   C4A23084  16.968  23.317   4.501 -0.3432  0.0558 -0.0321
    1DIPC   C1B23085  16.072  22.564   3.854  0.1354  0.0827  0.0321
    1DIPC   D2B23086  16.012  22.818   4.130  0.1513 -0.1763 -0.0194
    1DIPC   D3B23087  15.763  23.092   4.125  0.0802  0.0988  0.0870
    1DIPC   C4B23088  15.294  23.060   4.154 -0.2153 -0.1036  0.4475
    1DIPC   NC323089  13.402  24.485   3.589  0.0884  0.1177 -0.1093
    1DIPC   PO423090  12.951  24.466   3.435 -0.1256 -0.0657 -0.2147
    1DIPC   GL123091  12.727  24.220   3.830 -0.0060  0.1531  0.1898
    1DIPC   GL223092  13.039  24.146   4.008 -0.1291 -0.0763 -0.0864
    1DIPC   C1A23093  12.530  24.307   4.138 -0.0320  0.1732  0.2963
    1DIPC   D2A23094  12.294  24.522   4.474  0.1441  0.0220 -0.1795
    1DIPC   D3A23095  12.250  24.766   4.216  0.0201  0.0421  0.3422
    1DIPC   C4A23096  12.651  24.937   4.009  0.0135 -0.0302  0.0694
    1DIPC   C1B23097  13.361  24.169   4.309 -0.1317  0.0938  0.0041
    1DIPC   D2B23098  13.665  23.868   4.465  0.0388  0.2356 -0.2218
    1DIPC   D3B23099  13.461  23.572   4.233  0.1680  0.1415 -0.3167
    1DIPC   C4B23100  13.147  23.307   4.475  0.0822 -0.0560  0.2264
    1DIPC   NC323101  25.594  27.514   2.590  0.0564 -0.4331 -0.1105
    1DIPC   PO423102  25.251  27.548   2.831  0.2390 -0.0356  0.0970
    1DIPC   GL123103  25.387  27.607   3.264 -0.0738  0.0937 -0.2874
    1DIPC   GL223104  25.545  27.340   3.400 -0.2354 -0.1139  0.0230
    1DIPC   C1A23105  25.051  27.614   3.631  0.0672  0.0735  0.0276
    1DIPC   D2A23106  24.746  27.518   3.972  0.1577 -0.0018 -0.2977
    1DIPC   D3A23107  24.752  27.534   4.450  0.2779 -0.1581 -0.2126
    1DIPC   C4A23108  24.373  27.521   4.776 -0.1384  0.1852  0.2859
    1DIPC   C1B23109  25.591  27.400   3.792 -0.0514 -0.0052  0.0867
    1DIPC   D2B23110  25.426  27.626   4.139  0.1026  0.1798 -0.0810
    1DIPC   D3B23111  25.270  27.159   4.256  0.0153 -0.1426 -0.1083
    1DIPC   C4B23112  25.104  26.822   4.250  0.1387 -0.3158 -0.0225
    1DIPC   NC323113  21.065   0.433   2.876 -0.0258  0.0778 -0.3378
    1DIPC   PO423114  20.828   0.280   3.142 -0.0588 -0.1806  0.1105
    1DIPC   GL123115  21.043  -0.030   3.410 -0.1379 -0.0566  0.1302
    1DIPC   GL223116  21.037  -0.384   3.214  0.1992  0.1938  0.1329
    1DIPC   C1A23117  21.176  -0.123   3.792 -0.0062 -0.1391  0.1423
    1DIPC   D2A23118  21.606  -0.338   3.993 -0.0003 -0.1417  0.4752
    1DIPC   D3A23119  22.059  -0.025   3.942  0.2079  0.0737 -0.2068
    1DIPC   C4A23120  22.021   0.331   4.085  0.2365 -0.1395  0.3796
    1DIPC   C1B23121  21.345  -0.499   3.427 -0.0329 -0.1040 -0.0693
    1DIPC   D2B23122  21.795  -0.533   3.569 -0.1722  0.3025 -0.1673
    1DIPC   D3B23123  21.989  -0.809   3.832 -0.0410 -0.0434 -0.2423
    1DIPC   C4B23124  22.309  -1.162   3.654  0.3234 -0.0104  0.0483
    1DIPC   NC323125  17.167   6.755   3.899 -0.1982 -0.2785  0.0870
    1DIPC   PO423126  16.694   6.630   3.843 -0.3317 -0.1112 -0.2184
    1DIPC   GL123127  16.888   6.557   4.292  0.3184 -0.0513  0.0793
    1DIPC   GL223128  17.291   6.432   4.311 -0.0489  0.1262 -0.4446
    1DIPC   C1A23129  16.629   6.507   4.542 -0.1308  0.0777 -0.0631
    1DIPC   D2A23130  16.427   6.241   4.834  0.0588  0.0641  0.2586
    1DIPC   D3A23131  16.356   6.697   4.990 -0.0466  0.0635 -0.0430
    1DIPC   C4A23132  16.721   7.018   4.957  0.1174 -0.2618 -0.4105
    1DIPC   C1B23133  17.286   6.123   4.683  0.1725  0.1615 -0.0867
    1DIPC   D2B23134  16.925   6.258   4.946  0.0246 -0.0238 -0.0181
    1DIPC   D3B23135  17.064   6.539   4.949 -0.0637 -0.0456 -0.3392
    1DIPC   C4B23136  17.117   6.849   4.617 -0.0775 -0.0093  0.0720
    1DIPC   NC323137  25.775   6.554   2.323  0.2550 -0.2312  0.1450
    1DIPC   PO423138  25.516   6.960   2.426 -0.5265 -0.0305 -0.1386
    1DIPC   GL123139  25.245   7.336   2.750 -0.0596 -0.0350 -0.0978
    1DIPC   GL223140  25.498   7.511   2.861 -0.2025 -0.0216 -0.1333
    1DIPC   C1A23141  25.258   7.310   3.223  0.1582  0.1896  0.1523
    1DIPC   D2A23142  25.430   7.188   3.593  0.2116 -0.2550 -0.1908
    1DIPC   D3A23143  25.800   7.200   3.860  0.0369  0.0960  0.0967
    1DIPC   C4A23144  26.142   6.987   4.016 -0.1632  0.0118 -0.3758
    1DIPC   C1B23145  25.519   7.769   3.252 -0.1577  0.2375  0.1956
    1DIPC   D2B23146  25.577   7.769   3.762  0.1684 -0.0779  0.0523
    1DIPC   D3B23147  25.938   7.641   3.997  0.3321 -0.0470  0.2224
    1DIPC   C4B23148  25.928   7.323   4.348 -0.0749  0.1689 -0.0084
    1DIPC   NC323149  16.049  27.827   3.498 -0.1378 -0.1465  0.1032
    1DIPC   PO423150  16.092  28.116   3.823 -0.1302  0.0369  0.0643
    1DIPC   GL123151  16.006  28.123   4.179 -0.2749  0.2955 -0.0410
    1DIPC   GL223152  15.735  28.074   4.298 -0.3840 -0.0522  0.1794
    1DIPC   C1A23153  16.095  28.426   4.537  0.0433 -0.2263 -0.4928
    1DIPC   D2A23154  16.130  28.367   4.997 -0.3977  0.2598 -0.0611
    1DIPC   D3A23155  16.244  28.240   5.374 -0.2605  0.1751  0.3281
    1DIPC   C4A23156  15.848  28.077   5.559 -0.0912  0.0071  0.0886
    1DIPC   C1B23157  15.912  27.632   4.460  0.1893  0.0284  0.0344
    1DIPC   D2B23158  16.134  27.249   4.419  0.2070 -0.1051  0.0851
    1DIPC   D3B23159  16.194  26.841   4.619 -0.1617  0.2078  0.0934
    1DIPC   C4B23160  15.968  26.338   4.618 -0.3305 -0.0138  0.1781
    1DIPC   NC323161   0.804  20.218   2.337  0.3474  0.2488 -0.0410
    1DIPC   PO423162   1.145  19.897   2.403 -0.0405  0.1244  0.1726
    1DIPC   GL123163   1.487  19.734   2.695  0.3618  0.0479 -0.0740
    1DIPC   GL223164   1.695  19.892   2.875  0.1235 -0.1368 -0.0922
    1DIPC   C1A23165   1.470  19.625   3.253 -0.2096 -0.2212 -0.1745
    1DIPC   D2A23166   1.488  19.832   3.666  0.0823 -0.1633  0.3309
    1DIPC   D3A23167   1.357  19.833   4.107  0.0126 -0.0437  0.0925
    1DIPC   C4A23168   1.254  20.144   4.459 -0.0670 -0.0119 -0.2307
    1DIPC   C1B23169   1.495  20.150   3.159 -0.2302 -0.2000  0.0493
    1DIPC   D2B23170   1.392  20.329   3.551 -0.0689 -0.0592  0.0571
    1DIPC   D3B23171   1.284  20.358   3.981  0.1854 -0.0231 -0.0078
    1DIPC   C4B23172   0.825  20.394   4.082 -0.0051  0.0223  0.0376
    1DIPC   NC323173  17.771   6.823   3.742  0.3631 -0.0054 -0.0903
    1DIPC   PO423174  17.627   6.361   3.785 -0.3053  0.1238  0.0769
    1DIPC   GL123175  17.901   6.281   4.027 -0.1218 -0.0425 -0.0552
    1DIPC   GL223176  17.930   6.577   4.220  0.0062 -0.1058 -0.2342
    1DIPC   C1A23177  18.294   5.988   4.059  0.1343  0.2688 -0.0018
    1DIPC   D2A23178  18.691   5.911   4.007  0.1352  0.1921 -0.0829
    1DIPC   D3A23179  19.029   6.204   3.830 -0.0943  0.0138  0.0617
    1DIPC   C4A23180  19.079   6.589   4.103  0.0138  0.4218 -0.4235
    1DIPC   C1B23181  18.261   6.523   4.549 -0.1327  0.1060 -0.0779
    1DIPC   D2B23182  18.318   6.255   4.897 -0.1640 -0.0822 -0.0115
    1DIPC   D3B23183  17.957   6.173   5.157  0.0768  0.0825  0.2348
    1DIPC   C4B23184  18.120   5.982   5.596 -0.1225 -0.0614 -0.1799
    1DIPC   NC323185   4.293  12.079   2.998  0.2110  0.1895  0.2124
    1DIPC   PO423186   4.728  12.193   2.950 -0.1463 -0.0052  0.0745
    1DIPC   GL123187   4.519  12.324   3.464 -0.0507  0.2270  0.1099
    1DIPC   GL223188   4.171  12.343   3.423  0.0068 -0.1294  0.0127
    1DIPC   C1A23189   4.340  12.615   3.817  0.0849  0.1168  0.0122
    1DIPC   D2A23190   4.248  12.767   4.243 -0.0126 -0.2826  0.2346
    1DIPC   D3A23191   4.397  13.209   4.261  0.2011  0.1658 -0.1499
    1DIPC   C4A23192   4.191  13.518   4.514  0.0749  0.0353 -0.5745
    1DIPC   C1B23193   3.919  12.172   3.663  0.1040  0.1354  0.2498
    1DIPC   D2B23194   3.793  11.797   3.861 -0.3165 -0.2008 -0.2574
    1DIPC   D3B23195   3.851  11.269   3.827  0.0554 -0.1406 -0.0232
    1DIPC   C4B23196   4.154  10.954   3.670  0.0580  0.0671  0.0279
    1DIPC   NC323197  23.554  16.847   2.069  0.0051  0.0917 -0.1562
    1DIPC   PO423198  23.906  17.110   2.222  0.0208 -0.1317  0.1855
    1DIPC   GL123199  23.806  16.842   2.545  0.0303 -0.1458  0.0969
    1DIPC   GL223200  23.866  17.164   2.868  0.0443  0.1447  0.2736
    1DIPC   C1A23201  23.625  16.626   2.877  0.1362  0.1216 -0.1039
    1DIPC   D2A23202  23.594  16.164   2.939 -0.1717 -0.1360  0.1341
    1DIPC   D3A23203  23.496  15.767   3.124 -0.1470 -0.1604 -0.0681
    1DIPC   C4A23204  23.626  15.391   3.000 -0.0878 -0.0982 -0.0384
    1DIPC   C1B23205  23.811  16.912   3.224 -0.1823  0.1018 -0.1026
    1DIPC   D2B23206  23.780  16.765   3.580 -0.5248  0.2126 -0.0809
    1DIPC   D3B23207  23.644  16.368   3.840  0.2504  0.2250 -0.0378
    1DIPC   C4B23208  23.383  16.377   4.191 -0.0084  0.2534  0.1620
    1DIPC   NC323209  22.499  24.939   3.180  0.0414  0.2594  0.0508
    1DIPC   PO423210  22.389  25.094   3.525 -0.0303  0.0623 -0.1921
    1DIPC   GL123211  22.498  25.302   3.945 -0.1406  0.0565  0.0535
    1DIPC   GL223212  22.245  25.458   4.111  0.4372 -0.0360  0.0203
    1DIPC   C1A23213  22.888  25.308   4.215 -0.1324  0.2833 -0.0364
    1DIPC   D2A23214  23.165  25.226   4.559  0.3337  0.1893  0.1901
    1DIPC   D3A23215  22.939  25.586   4.717  0.3569  0.3408 -0.3060
    1DIPC   C4A23216  22.750  25.757   4.398 -0.0743 -0.1777  0.1372
    1DIPC   C1B23217  22.451  25.328   4.484 -0.0649 -0.2316  0.4831
    1DIPC   D2B23218  22.596  25.253   4.864  0.3854  0.0132  0.1738
    1DIPC   D3B23219  22.153  25.190   5.015 -0.1429 -0.1352 -0.1167
    1DIPC   C4B23220  22.008  25.454   5.353 -0.0197  0.1189 -0.1730
    1DIPC   NC323221  14.396  26.673   3.788 -0.0969  0.0884 -0.0078
    1DIPC   PO423222  14.113  26.292   3.620 -0.1761 -0.0664  0.1384
    1DIPC   GL123223  14.183  26.050   3.938  0.2353  0.0911 -0.1596
    1DIPC   GL223224  14.520  26.131   3.913 -0.1496 -0.0839 -0.3241
    1DIPC   C1A23225  14.049  25.744   4.160 -0.0978  0.1226  0.0862
    1DIPC   D2A23226  13.795  25.672   4.529  0.0535 -0.1200  0.1523
    1DIPC   D3A23227  14.189  25.588   4.798 -0.0463  0.3179  0.1229
    1DIPC   C4A23228  14.459  25.742   5.178 -0.2457  0.0098 -0.1353
    1DIPC   C1B23229  14.676  25.807   4.330 -0.0869 -0.1601 -0.1905
    1DIPC   D2B23230  14.687  25.688   4.700 -0.1135 -0.0810 -0.2542
    1DIPC   D3B23231  14.914  25.906   5.023  0.1041 -0.0586 -0.1172
    1DIPC   C4B23232  14.802  26.111   5.451  0.0722 -0.1873  0.2291
    1DIPC   NC323233   7.554  21.581   2.460  0.1979 -0.0371  0.0296
    1DIPC   PO423234   7.783  21.174   2.593  0.0087 -0.2427  0.3294
    1DIPC   GL123235   8.082  21.207   2.926  0.0736  0.0308 -0.1647
    1DIPC   GL223236   7.973  21.005   3.116  0.0368  0.0708  0.1174
    1DIPC   C1A23237   8.316  21.502   3.097 -0.1229 -0.1405 -0.1497
    1DIPC   D2A23238   8.662  21.462   3.399 -0.1744  0.1140  0.0706
    1DIPC   D3A23239   8.476  21.817   3.390 -0.1096 -0.0451  0.0593
    1DIPC   C4A23240   8.430  22.151   3.724 -0.2148 -0.1049  0.1547
    1DIPC   C1B23241   7.706  20.936   3.465 -0.2446  0.0874 -0.2171
    1DIPC   D2B23242   7.652  21.268   3.809  0.2188 -0.1496  0.2059
    1DIPC   D3B23243   7.973  21.135   4.192 -0.2035 -0.1888 -0.2187
    1DIPC   C4B23244   7.877  21.254   4.595  0.0519 -0.2208  0.1057
    1DIPC   NC323245  21.663  27.525   2.754  0.0154 -0.0361  0.2495
    1DIPC   PO423246  22.155  27.634   2.669 -0.0628  0.0409  0.0094
    1DIPC   GL123247  22.273  27.512   3.150  0.2497 -0.1731  0.1336
    1DIPC   GL223248  22.216  27.274   3.289  0.0436 -0.0107 -0.1573
    1DIPC   C1A23249  22.557  27.639   3.480 -0.2382  0.0502 -0.1491
    1DIPC   D2A23250  22.827  27.705   3.808  0.2407  0.1491 -0.2029
    1DIPC   D3A23251  22.756  28.137   4.171  0.0445  0.3211  0.2729
    1DIPC   C4A23252  22.506  28.108   4.525 -0.0645  0.1069  0.4089
    1DIPC   C1B23253  22.486  27.124   3.626 -0.2370 -0.0125  0.1971
    1DIPC   D2B23254  22.933  27.193   3.768 -0.0403  0.0797 -0.0303
    1DIPC   D3B23255  22.662  27.329   4.091 -0.0675  0.2284 -0.0847
    1DIPC   C4B23256  22.814  27.659   4.404 -0.1515  0.0165  0.1424
    1DIPC   NC323257  16.034   0.320   3.080  0.1760 -0.0743 -0.0741
    1DIPC   PO423258  15.947   0.721   3.276 -0.3294 -0.0822  0.1945
    1DIPC   GL123259  16.301   0.706   3.526  0.4248  0.0219  0.1456
    1DIPC   GL223260  16.105   0.419   3.720 -0.0301  0.3156 -0.3741
    1DIPC   C1A23261  16.464   1.008   3.796  0.0601  0.0063 -0.3294
    1DIPC   D2A23262  16.199   1.282   4.101  0.1671  0.2534  0.2188
    1DIPC   D3A23263  16.529   1.185   4.377  0.0173  0.0782  0.0759
    1DIPC   C4A23264  16.792   1.592   4.386  0.1376  0.1330  0.0252
    1DIPC   C1B23265  16.232   0.432   4.114 -0.2458  0.1138  0.1815
    1DIPC   D2B23266  16.314   0.708   4.522 -0.2267 -0.1645 -0.3041
    1DIPC   D3B23267  16.397   0.741   4.888 -0.0458  0.1256  0.0791
    1DIPC   C4B23268  16.078   0.913   5.291  0.0295  0.0600  0.0423
    1DIPC   NC323269   5.065   6.031   2.652 -0.2404  0.1383  0.1747
    1DIPC   PO423270   4.820   6.359   2.804 -0.1699  0.1491  0.1832
    1DIPC   GL123271   4.608   6.327   3.217 -0.4006 -0.1164  0.1347
    1DIPC   GL223272   4.288   6.525   3.196 -0.0703 -0.0299 -0.1840
    1DIPC   C1A23273   4.504   6.134   3.631 -0.1019 -0.0984 -0.2906
    1DIPC   D2A23274   4.162   5.999   3.772 -0.2134 -0.1231  0.4781
    1DIPC   D3A23275   4.031   5.592   3.998  0.2571 -0.1575  0.0052
    1DIPC   C4A23276   4.138   5.133   3.954  0.1592 -0.3091  0.0335
    1DIPC   C1B23277   3.801   6.551   3.150  0.2277  0.0382  0.2201
    1DIPC   D2B23278   3.486   6.761   3.004 -0.0797 -0.0452  0.0109
    1DIPC   D3B23279   3.213   7.072   2.764  0.0369 -0.2029 -0.0493
    1DIPC   C4B23280   2.987   7.398   3.087 -0.0379 -0.0734  0.0238
    1DIPC   NC323281   7.347   5.877   3.053  0.0531 -0.2106 -0.0226
    1DIPC   PO423282   6.968   5.535   3.023  0.0279  0.0961 -0.1659
    1DIPC   GL123283   6.867   5.341   3.483 -0.1688 -0.1078 -0.0339
    1DIPC   GL223284   6.590   5.226   3.476  0.0120  0.2558  0.1040
    1DIPC   C1A23285   6.926   5.083   3.847  0.1031 -0.2013  0.2442
    1DIPC   D2A23286   7.323   4.979   4.119 -0.1677  0.1888  0.2602
    1DIPC   D3A23287   7.721   4.826   4.252 -0.2257  0.0567  0.2211
    1DIPC   C4A23288   7.985   4.539   4.070  0.2284 -0.0139 -0.0523
    1DIPC   C1B23289   6.611   4.812   3.565  0.0587 -0.0584  0.3671
    1DIPC   D2B23290   6.763   4.578   3.911  0.1709  0.0347  0.1747
    1DIPC   D3B23291   7.272   4.457   3.999  0.1311  0.1257  0.1502
    1DIPC   C4B23292   7.572   4.369   4.306  0.1693 -0.0697 -0.1363
    1DIPC   NC323293  17.428   4.743   3.206 -0.0217  0.0653 -0.0350
    1DIPC   PO423294  17.202   4.746   3.689 -0.0206 -0.5044 -0.0938
    1DIPC   GL123295  17.139   4.644   4.087  0.1096 -0.1744 -0.4659
    1DIPC   GL223296  16.749   4.740   4.170  0.0295  0.0716  0.0664
    1DIPC   C1A23297  17.191   4.311   4.284  0.0965  0.0757 -0.0805
    1DIPC   D2A23298  16.907   4.139   4.564  0.1699  0.1290 -0.1845
    1DIPC   D3A23299  16.640   3.680   4.485  0.0147 -0.2068  0.1635
    1DIPC   C4A23300  16.213   3.665   4.512  0.1789  0.1077  0.0857
    1DIPC   C1B23301  16.652   5.011   4.555 -0.3111 -0.2025  0.1148
    1DIPC   D2B23302  16.652   5.267   4.973  0.0674 -0.0013 -0.2880
    1DIPC   D3B23303  16.844   5.282   5.407 -0.2470  0.0464  0.2252
    1DIPC   C4B23304  17.106   5.031   5.566 -0.1343  0.1159  0.2468
    1DIPC   NC323305  19.825  24.065   2.609  0.0482 -0.0135  0.0022
    1DIPC   PO423306  19.857  24.164   2.947  0.0955  0.2969 -0.0563
    1DIPC   GL123307  19.907  24.131   3.414 -0.2474 -0.1746  0.0174
    1DIPC   GL223308  20.099  23.839   3.546 -0.0850 -0.2734  0.1055
    1DIPC   C1A23309  19.706  24.352   3.875 -0.2253  0.1611  0.4031
    1DIPC   D2A23310  19.430  24.732   3.788 -0.0078  0.2242  0.0619
    1DIPC   D3A23311  19.385  25.058   4.111  0.2510 -0.0395 -0.0399
    1DIPC   C4A23312  19.134  24.869   4.383  0.0782 -0.1489  0.4591
    1DIPC   C1B23313  19.881  23.808   3.904  0.3686 -0.0187  0.0605
    1DIPC   D2B23314  19.904  23.887   4.351 -0.2607 -0.1483 -0.0677
    1DIPC   D3B23315  20.365  24.068   4.419 -0.0092  0.0859  0.0356
    1DIPC   C4B23316  20.699  23.780   4.312 -0.1259 -0.3562  0.0388
    1DIPC   NC323317   0.254  17.364   2.766  0.0273 -0.0685 -0.0283
    1DIPC   PO423318  -0.110  17.565   2.868 -0.1322 -0.0311 -0.0035
    1DIPC   GL123319  -0.067  17.338   3.300  0.4803 -0.0356 -0.2056
    1DIPC   GL223320   0.149  17.503   3.423  0.1907 -0.1328 -0.1575
    1DIPC   C1A23321  -0.307  17.217   3.656 -0.1536 -0.0361 -0.0798
    1DIPC   D2A23322  -0.700  17.456   3.882  0.2932 -0.4346  0.0577
    1DIPC   D3A23323  -0.907  17.256   4.185  0.0396  0.1775  0.1234
    1DIPC   C4A23324  -1.068  16.844   4.049  0.1335  0.1689 -0.1692
    1DIPC   C1B23325   0.183  17.237   3.777  0.0601  0.3086  0.0363
    1DIPC   D2B23326   0.494  16.999   4.055  0.1336  0.0180 -0.0269
    1DIPC   D3B23327   0.432  16.826   3.673 -0.0655 -0.1329  0.0200
    1DIPC   C4B23328   0.686  16.479   3.617  0.0960 -0.2513  0.0615
    1DIPC   NC323329  29.003   1.172   3.450  0.0111 -0.2526  0.0148
    1DIPC   PO423330  29.487   1.138   3.388  0.2220 -0.1490 -0.2458
    1DIPC   GL123331  29.661   1.304   3.735  0.1840 -0.1592  0.2571
    1DIPC   GL223332  30.024   1.370   3.743  0.1221 -0.3193  0.2614
    1DIPC   C1A23333  29.686   1.463   4.174  0.0727  0.3829  0.1680
    1DIPC   D2A23334  29.351   1.400   4.489 -0.1591 -0.0456  0.2221
    1DIPC   D3A23335  29.202   1.772   4.821 -0.2941 -0.2396  0.0640
    1DIPC   C4A23336  28.993   2.204   4.737 -0.0393 -0.0012 -0.1594
    1DIPC   C1B23337  30.192   1.445   4.163  0.2065 -0.0110 -0.0839
    1DIPC   D2B23338  30.123   1.653   4.519  0.2402 -0.1916 -0.1519
    1DIPC   D3B23339  29.820   1.886   4.738 -0.0133  0.1835  0.1335
    1DIPC   C4B23340  29.509   2.155   4.797 -0.2011  0.1074 -0.1021
    1DIPC   NC323341  21.377  10.173   3.006  0.1404 -0.1604 -0.3445
    1DIPC   PO423342  21.714   9.957   2.936 -0.2262  0.2143 -0.1076
    1DIPC   GL123343  21.852   9.873   3.266  0.0554  0.0115 -0.0742
    1DIPC   GL223344  21.533   9.808   3.442 -0.2556  0.3425 -0.1487
    1DIPC   C1A23345  22.166   9.745   3.526 -0.1710 -0.0503 -0.0184
    1DIPC   D2A23346  22.399   9.316   3.605 -0.1705  0.1105 -0.4009
    1DIPC   D3A23347  22.807   9.486   3.429 -0.1360  0.1706  0.0918
    1DIPC   C4A23348  22.783   9.945   3.364 -0.0429 -0.2705  0.1491
    1DIPC   C1B23349  21.837  10.043   3.788  0.1549  0.1841 -0.1413
    1DIPC   D2B23350  22.129  10.162   4.085 -0.2314 -0.0073  0.2861
    1DIPC   D3B23351  21.802  10.080   4.375  0.3566 -0.0381 -0.0911
    1DIPC   C4B23352  21.691  10.236   4.743  0.0608 -0.2090  0.0657
    1DIPC   NC323353   0.679   1.191   3.220 -0.0659  0.0955 -0.0175
    1DIPC   PO423354   0.778   1.599   3.084  0.1540 -0.0489 -0.1452
    1DIPC   GL123355   1.055   1.672   3.376  0.0103 -0.2210 -0.0010
    1DIPC   GL223356   0.959   1.806   3.654  0.0745 -0.3874  0.0781
    1DIPC   C1A23357   1.393   1.511   3.705 -0.2233  0.0818  0.0278
    1DIPC   D2A23358   1.582   1.119   3.691 -0.1440 -0.1771  0.0532
    1DIPC   D3A23359   1.758   1.160   4.003  0.2858 -0.4597  0.0239
    1DIPC   C4A23360   1.969   0.856   4.260  0.0341  0.5242  0.1025
    1DIPC   C1B23361   1.152   1.802   4.100  0.0181 -0.0729 -0.0346
    1DIPC   D2B23362   1.334   2.075   4.476  0.3305  0.0711  0.0183
    1DIPC   D3B23363   1.120   1.922   4.787  0.1753 -0.5284  0.1414
    1DIPC   C4B23364   1.316   1.887   5.205  0.1668  0.0847 -0.1103
    1DIPC   NC323365  24.229  10.777   2.801  0.0721 -0.2208  0.2902
    1DIPC   PO423366  24.568  11.006   2.726  0.2357 -0.1231  0.2251
    1DIPC   GL123367  24.502  11.185   3.056  0.0687  0.1396  0.1502
    1DIPC   GL223368  24.306  10.951   3.276 -0.1139 -0.0223 -0.0583
    1DIPC   C1A23369  24.373  11.405   3.392 -0.1156  0.1892  0.0985
    1DIPC   D2A23370  24.261  11.801   3.571 -0.1945  0.0390 -0.0725
    1DIPC   D3A23371  24.244  11.885   3.196  0.0133 -0.1066 -0.2638
    1DIPC   C4A23372  23.891  11.928   3.034  0.2104 -0.0942 -0.1773
    1DIPC   C1B23373  24.414  11.050   3.713  0.2277  0.0978 -0.0507
    1DIPC   D2B23374  24.408  11.087   4.145 -0.1803  0.3119  0.3515
    1DIPC   D3B23375  24.143  10.756   4.339 -0.0820  0.1473 -0.1148
    1DIPC   C4B23376  24.293  10.734   4.738 -0.1369  0.2960 -0.1117
    1DIPC   NC323377   5.405  28.053   3.281 -0.0760  0.3673  0.0748
    1DIPC   PO423378   5.143  27.675   3.414  0.0923 -0.1926  0.0524
    1DIPC   GL123379   5.362  27.700   3.802 -0.3813  0.1621 -0.2598
    1DIPC   GL223380   5.123  27.565   3.950 -0.0110 -0.0564  0.0462
    1DIPC   C1A23381   5.654  27.713   4.050  0.0411  0.0404 -0.0906
    1DIPC   D2A23382   5.891  28.009   4.407 -0.2634 -0.1042 -0.1032
    1DIPC   D3A23383   5.486  27.774   4.580  0.0468 -0.3264 -0.2556
    1DIPC   C4A23384   5.375  27.400   4.468  0.1915  0.3443  0.1122
    1DIPC   C1B23385   4.954  27.709   4.374  0.1103  0.0303  0.0960
    1DIPC   D2B23386   5.129  27.679   4.899 -0.0881  0.3717 -0.3548
    1DIPC   D3B23387   5.348  27.747   5.298 -0.0535  0.0081 -0.1507
    1DIPC   C4B23388   5.054  27.630   5.644 -0.1360 -0.0643 -0.0214
    1DIPC   NC323389  18.947   4.593   3.060 -0.1705  0.2229  0.1999
    1DIPC   PO423390  19.292   4.788   2.884  0.1958 -0.0807  0.0312
    1DIPC   GL123391  19.498   4.614   3.286  0.0004 -0.2317  0.0241
    1DIPC   GL223392  19.223   4.705   3.511  0.0710  0.0871 -0.0852
    1DIPC   C1A23393  19.806   4.364   3.549 -0.0958  0.3658  0.1299
    1DIPC   D2A23394  20.125   4.293   3.844 -0.1309 -0.2006 -0.1331
    1DIPC   D3A23395  20.197   3.905   4.086 -0.0114  0.1988 -0.0492
    1DIPC   C4A23396  20.578   4.008   4.343  0.3727  0.2807  0.1447
    1DIPC   C1B23397  19.333   4.467   3.737 -0.0899 -0.0456 -0.0927
    1DIPC   D2B23398  19.600   4.299   4.102 -0.1643  0.0535  0.1016
    1DIPC   D3B23399  19.724   3.909   4.508 -0.1774 -0.0923  0.0433
    1DIPC   C4B23400  19.541   3.474   4.605 -0.2919  0.4460 -0.2620
    1DIPC   NC323401   1.099  17.082   1.730 -0.3891  0.1953  0.0142
    1DIPC   PO423402   1.126  16.756   2.171 -0.3810  0.0358  0.0250
    1DIPC   GL123403   0.901  16.702   2.546 -0.2518 -0.0651 -0.1505
    1DIPC   GL223404   0.763  16.453   2.708  0.2079 -0.3446  0.1001
    1DIPC   C1A23405   0.988  16.972   2.776  0.1082 -0.0468  0.1264
    1DIPC   D2A23406   0.789  17.268   2.921 -0.2538  0.0368 -0.0344
    1DIPC   D3A23407   0.439  17.222   3.185 -0.1030 -0.2210 -0.1505
    1DIPC   C4A23408   0.258  16.764   3.217  0.0879 -0.1419 -0.0023
    1DIPC   C1B23409   0.750  16.726   3.116 -0.1146 -0.0881 -0.3140
    1DIPC   D2B23410   1.044  17.093   3.333 -0.0558  0.4704  0.1804
    1DIPC   D3B23411   1.433  17.071   3.641 -0.0056 -0.1486  0.0020
    1DIPC   C4B23412   1.629  17.409   4.017 -0.1081  0.0644 -0.1251
    1DIPC   NC323413  20.128  23.183   3.165  0.2122 -0.0666 -0.0217
    1DIPC   PO423414  20.109  23.599   3.082  0.0084 -0.1865 -0.0112
    1DIPC   GL123415  20.476  23.627   3.336  0.3667 -0.3095  0.1176
    1DIPC   GL223416  20.885  23.638   3.286 -0.2393  0.3948 -0.1273
    1DIPC   C1A23417  20.586  23.764   3.711 -0.0218 -0.0980  0.0356
    1DIPC   D2A23418  20.880  23.541   3.925 -0.0888  0.1308 -0.3072
    1DIPC   D3A23419  21.022  23.995   3.967 -0.0798  0.1447 -0.2600
    1DIPC   C4A23420  20.789  24.279   4.129 -0.0549  0.3209 -0.0045
    1DIPC   C1B23421  21.254  23.684   3.672 -0.1241  0.1487  0.0662
    1DIPC   D2B23422  21.575  23.529   3.643  0.1988 -0.1667  0.0775
    1DIPC   D3B23423  21.625  23.297   4.001 -0.1497  0.0345 -0.1790
    1DIPC   C4B23424  21.567  23.320   4.405 -0.2580 -0.2685 -0.3287
    1DIPC   NC323425   6.886  22.120   2.355 -0.5021 -0.1509  0.1514
    1DIPC   PO423426   7.445  22.169   2.605 -0.0929  0.3946 -0.1892
    1DIPC   GL123427   7.587  22.185   3.096 -0.1839  0.1480  0.1070
    1DIPC   GL223428   7.781  22.393   3.270 -0.1459 -0.0197  0.0367
    1DIPC   C1A23429   7.544  22.144   3.620  0.0068  0.5377 -0.0648
    1DIPC   D2A23430   7.651  22.238   4.001 -0.2659  0.1318  0.1010
    1DIPC   D3A23431   7.276  22.080   4.035 -0.0061  0.0068 -0.0658
    1DIPC   C4A23432   7.237  21.610   4.216 -0.0139 -0.4896  0.2357
    1DIPC   C1B23433   7.990  22.399   3.689  0.0617  0.1669  0.0483
    1DIPC   D2B23434   8.038  22.520   4.144  0.1122 -0.2111 -0.0779
    1DIPC   D3B23435   8.551  22.454   4.125  0.0709 -0.0198  0.0388
    1DIPC   C4B23436   8.842  22.758   3.859 -0.1047  0.1053  0.1669
    1DIPC   NC323437   4.791   1.898   3.145 -0.2304  0.0087  0.1633
    1DIPC   PO423438   4.609   2.283   3.240  0.1268  0.3632 -0.0465
    1DIPC   GL123439   4.485   2.409   3.660 -0.0921 -0.2081  0.0063
    1DIPC   GL223440   4.594   2.620   3.729  0.0847 -0.1503  0.0386
    1DIPC   C1A23441   4.112   2.533   3.934  0.1015 -0.1545  0.0378
    1DIPC   D2A23442   3.961   2.352   4.322  0.1585 -0.1656 -0.1699
    1DIPC   D3A23443   3.548   2.537   4.325 -0.1780 -0.0619 -0.0872
    1DIPC   C4A23444   3.466   2.778   4.570 -0.3310  0.3225 -0.1688
    1DIPC   C1B23445   4.865   2.300   3.972 -0.4064 -0.0196  0.1361
    1DIPC   D2B23446   5.174   2.007   4.024  0.1271  0.0652 -0.2262
    1DIPC   D3B23447   5.549   2.243   4.149 -0.0679  0.1909  0.1274
    1DIPC   C4B23448   5.988   2.107   4.243  0.4331  0.0107  0.2661
    1DIPC   NC323449   5.145   4.170   3.098  0.1340  0.1904  0.0017
    1DIPC   PO423450   4.816   3.826   3.025 -0.1347  0.0365  0.0256
    1DIPC   GL123451   4.708   4.125   3.253 -0.1434  0.2700  0.0898
    1DIPC   GL223452   4.409   4.339   3.251  0.1768 -0.3208 -0.1507
    1DIPC   C1A23453   4.787   4.340   3.613  0.2683  0.1516 -0.1489
    1DIPC   D2A23454   5.123   4.541   3.973  0.3736  0.2132  0.2694
    1DIPC   D3A23455   5.176   5.089   4.043  0.2669 -0.1236  0.1925
    1DIPC   C4A23456   5.086   5.334   3.697 -0.0512  0.0205  0.2326
    1DIPC   C1B23457   4.089   4.275   3.648 -0.1377  0.2027 -0.1506
    1DIPC   D2B23458   3.789   4.219   4.046 -0.1497 -0.1686  0.1479
    1DIPC   D3B23459   4.040   4.294   4.428  0.1254 -0.3460  0.2837
    1DIPC   C4B23460   4.518   4.036   4.476 -0.1141 -0.1531  0.2799
    1DIPC   NC323461  26.727  16.557   1.736  0.4047  0.1046 -0.0800
    1DIPC   PO423462  26.656  16.654   2.177 -0.0218  0.0339 -0.0074
    1DIPC   GL123463  26.515  16.534   2.620  0.0393 -0.1214  0.2415
    1DIPC   GL223464  26.629  16.812   2.861  0.1546 -0.2315  0.1575
    1DIPC   C1A23465  26.332  16.311   3.043  0.1526  0.2664 -0.1103
    1DIPC   D2A23466  26.086  16.268   3.473 -0.0113 -0.1038 -0.0583
    1DIPC   D3A23467  26.193  15.906   3.818 -0.1687 -0.3362  0.2917
    1DIPC   C4A23468  25.853  15.520   3.864  0.0465  0.0549  0.0518
    1DIPC   C1B23469  26.515  16.716   3.219 -0.3184 -0.0471 -0.5123
    1DIPC   D2B23470  26.679  16.850   3.631 -0.2114  0.2209 -0.2580
    1DIPC   D3B23471  26.896  16.873   3.841  0.0163 -0.2634  0.3278
    1DIPC   C4B23472  27.048  16.605   4.248 -0.1208 -0.2489  0.4938
    1DIPC   NC323473  18.404   1.302   3.124  0.0816  0.0411 -0.2390
    1DIPC   PO423474  18.077   1.099   3.319  0.0255  0.0117  0.2633
    1DIPC   GL123475  18.226   1.029   3.636  0.2306  0.0401  0.1110
    1DIPC   GL223476  18.235   0.734   3.581  0.4547  0.5799 -0.2225
    1DIPC   C1A23477  18.199   0.967   4.075 -0.0614 -0.2573  0.0062
    1DIPC   D2A23478  18.225   1.102   4.573 -0.2983 -0.0428  0.0342
    1DIPC   D3A23479  18.096   1.439   4.702 -0.1266  0.5517  0.1840
    1DIPC   C4A23480  18.094   1.521   5.098  0.2602  0.0010 -0.0575
    1DIPC   C1B23481  18.552   0.670   3.811  0.0622 -0.2267  0.2483
    1DIPC   D2B23482  18.658   0.846   4.275  0.0238 -0.0268  0.2228
    1DIPC   D3B23483  18.784   1.120   3.939  0.2461  0.0370 -0.1405
    1DIPC   C4B23484  18.487   1.409   3.963 -0.2800  0.0547  0.2304
    1DIPC   NC323485   0.614  21.080   2.471  0.0789  0.1051  0.0061
    1DIPC   PO423486   0.751  20.774   2.656 -0.1365 -0.0166 -0.0057
    1DIPC   GL123487   0.424  20.660   2.892 -0.1925 -0.0919  0.0121
    1DIPC   GL223488   0.289  20.972   2.893 -0.0555 -0.1281 -0.0530
    1DIPC   C1A23489   0.227  20.702   3.319  0.2076 -0.3106 -0.1251
    1DIPC   D2A23490   0.067  20.940   3.594 -0.2119 -0.1244 -0.2532
    1DIPC   D3A23491   0.348  20.607   3.835 -0.1162 -0.1987 -0.0729
    1DIPC   C4A23492   0.263  20.471   4.250 -0.0580 -0.1482 -0.2746
    1DIPC   C1B23493   0.399  21.245   3.296 -0.0114  0.1153 -0.0675
    1DIPC   D2B23494   0.476  21.596   3.648  0.2398 -0.2538 -0.1750
    1DIPC   D3B23495   0.233  21.903   3.838 -0.1695 -0.2010  0.2544
    1DIPC   C4B23496   0.518  22.195   3.975  0.0384 -0.0741 -0.0998
    1DIPC   NC323497  28.005  29.198   2.750 -0.3979  0.0743 -0.0977
    1DIPC   PO423498  27.771  29.461   3.036 -0.3098 -0.1054  0.0625
    1DIPC   GL123499  27.576  29.689   3.418  0.1277 -0.2625 -0.0656
    1DIPC   GL223500  27.268  29.819   3.466 -0.2411 -0.2551  0.1538
    1DIPC   C1A23501  27.721  29.829   3.768 -0.1730  0.0603 -0.0083
    1DIPC   D2A23502  27.929  29.693   4.052  0.0746 -0.0766 -0.1916
    1DIPC   D3A23503  27.709  29.358   4.309 -0.0331  0.4851  0.1069
    1DIPC   C4A23504  28.040  29.209   4.635 -0.0738  0.3300  0.1213
    1DIPC   C1B23505  27.281  30.172   3.887  0.0586  0.3692  0.2980
    1DIPC   D2B23506  27.776  30.255   4.005 -0.0432  0.0297  0.0365
    1DIPC   D3B23507  27.674  30.403   4.415 -0.1101 -0.1320  0.0923
    1DIPC   C4B23508  27.578  30.070   4.704 -0.1366 -0.1705 -0.0156
    1DIPC   NC323509  23.283   9.590   2.557 -0.0450 -0.2855 -0.1083
    1DIPC   PO423510  23.197   9.385   2.967  0.1344 -0.0082  0.2378
    1DIPC   GL123511  23.266   9.307   3.370 -0.0193  0.0219  0.0082
    1DIPC   GL223512  23.201   9.103   3.592 -0.1903  0.1598 -0.0569
    1DIPC   C1A23513  23.492   9.479   3.725  0.2253 -0.0853 -0.2431
    1DIPC   D2A23514  23.844   9.773   3.886 -0.1210 -0.0455 -0.2802
    1DIPC   D3A23515  23.505   9.942   3.979  0.1644 -0.1986  0.1707
    1DIPC   C4A23516  23.059   9.765   3.743 -0.0377 -0.1747 -0.3689
    1DIPC   C1B23517  22.906   9.212   3.840 -0.1696  0.1130 -0.0848
    1DIPC   D2B23518  22.671   9.413   4.045 -0.4921 -0.1072  0.3664
    1DIPC   D3B23519  22.770   9.237   4.457 -0.0878 -0.1617 -0.3337
    1DIPC   C4B23520  23.056   8.880   4.629 -0.1098  0.0423 -0.3999
    1DIPC   NC323521  11.672  25.335   3.254 -0.0322 -0.1386  0.2125
    1DIPC   PO423522  11.803  25.766   3.489  0.1021 -0.0012 -0.1568
    1DIPC   GL123523  11.368  25.735   3.490 -0.0342  0.1839 -0.0851
    1DIPC   GL223524  11.121  25.563   3.193  0.3206 -0.0894  0.1880
    1DIPC   C1A23525  11.026  25.687   3.716 -0.3161  0.3954 -0.2205
    1DIPC   D2A23526  10.966  25.779   4.168  0.0832 -0.1237  0.0483
    1DIPC   D3A23527  10.985  25.714   4.597  0.0325 -0.1082 -0.1649
    1DIPC   C4A23528  11.223  26.046   4.807  0.1119 -0.1836  0.2878
    1DIPC   C1B23529  10.802  25.399   3.403 -0.1213  0.2706 -0.0030
    1DIPC   D2B23530  10.545  25.015   3.252  0.0379  0.0245  0.0326
    1DIPC   D3B23531  10.101  25.092   3.226  0.0546 -0.0020 -0.1570
    1DIPC   C4B23532   9.921  24.946   3.600  0.0266  0.3310 -0.1201
    1DIPC   NC323533  20.355  24.061   3.007  0.0756  0.1883  0.2342
    1DIPC   PO423534  20.343  24.403   3.140  0.0088  0.0262 -0.2273
    1DIPC   GL123535  20.287  24.510   3.564 -0.0732 -0.2682  0.0239
    1DIPC   GL223536  20.167  24.714   3.806 -0.3544  0.1327 -0.0480
    1DIPC   C1A23537  20.193  24.243   4.000  0.1414  0.3035  0.1577
    1DIPC   D2A23538  20.013  24.447   4.366 -0.1396  0.0009 -0.2179
    1DIPC   D3A23539  19.536  24.535   4.331 -0.0520 -0.1541 -0.1796
    1DIPC   C4A23540  19.268  24.469   4.811  0.0538 -0.3380  0.1003
    1DIPC   C1B23541  19.865  24.854   4.038 -0.2256  0.1378 -0.0824
    1DIPC   D2B23542  19.768  25.261   4.282  0.2257  0.2135 -0.3606
    1DIPC   D3B23543  19.348  25.229   4.594  0.0939  0.0600  0.0185
    1DIPC   C4B23544  19.029  25.535   4.819  0.2353 -0.1974  0.0867
    1DIPC   NC323545  18.316   3.327   2.844  0.2138 -0.2968 -0.0620
    1DIPC   PO423546  17.946   3.324   2.990 -0.1249  0.0489 -0.3571
    1DIPC   GL123547  18.267   3.488   3.391  0.0111 -0.0630 -0.0648
    1DIPC   GL223548  18.188   3.722   3.563 -0.0855  0.0949 -0.0359
    1DIPC   C1A23549  18.417   3.303   3.794 -0.6244  0.2504  0.0749
    1DIPC   D2A23550  18.341   3.333   4.217  0.1310 -0.0528 -0.0494
    1DIPC   D3A23551  18.222   3.486   4.618 -0.2948  0.1775  0.2903
    1DIPC   C4A23552  18.484   3.255   4.919 -0.0482 -0.2722  0.0215
    1DIPC   C1B23553  17.978   3.569   3.862  0.0849  0.0241  0.1238
    1DIPC   D2B23554  17.833   3.392   4.211  0.1808 -0.0209  0.1690
    1DIPC   D3B23555  17.412   3.288   4.268  0.0271  0.1306 -0.2183
    1DIPC   C4B23556  17.145   3.673   4.285  0.1347 -0.2484  0.3791
    1DIPC   NC323557  17.559  22.469   2.414  0.0085 -0.2489 -0.1967
    1DIPC   PO423558  17.219  22.646   2.727 -0.0281 -0.1925  0.0480
    1DIPC   GL123559  17.372  22.535   3.108 -0.0472  0.1582 -0.0833
    1DIPC   GL223560  17.676  22.359   3.296  0.1976 -0.0636  0.1316
    1DIPC   C1A23561  17.471  22.720   3.503  0.1258 -0.3477  0.0579
    1DIPC   D2A23562  17.440  22.637   3.938 -0.2017  0.1138 -0.2840
    1DIPC   D3A23563  17.438  22.554   4.339 -0.1531 -0.1670 -0.0350
    1DIPC   C4A23564  16.936  22.716   4.404 -0.0190 -0.1797 -0.2399
    1DIPC   C1B23565  17.760  22.291   3.790  0.0076  0.1626 -0.1130
    1DIPC   D2B23566  17.386  22.145   4.002 -0.1262  0.1114 -0.0873
    1DIPC   D3B23567  17.055  22.413   4.025  0.0276 -0.0550 -0.0161
    1DIPC   C4B23568  16.572  22.348   3.935 -0.1100  0.0179  0.0487
    1DIPC   NC323569  21.818   3.317   2.677  0.2074  0.0405  0.0284
    1DIPC   PO423570  22.087   3.167   2.836 -0.3665 -0.0980 -0.1141
    1DIPC   GL123571  22.113   3.355   3.254 -0.0075 -0.2012  0.0443
    1DIPC   GL223572  22.454   3.578   3.042  0.2527  0.0117 -0.1368
    1DIPC   C1A23573  22.246   3.510   3.664  0.1397  0.4871 -0.1330
    1DIPC   D2A23574  22.193   3.213   4.014  0.1093  0.2697  0.1542
    1DIPC   D3A23575  21.801   3.166   3.911 -0.1370 -0.3385  0.0915
    1DIPC   C4A23576  21.726   2.849   3.583  0.1019 -0.0348 -0.1012
    1DIPC   C1B23577  22.806   3.678   3.230 -0.0563 -0.0208 -0.1782
    1DIPC   D2B23578  23.216   3.773   3.461  0.2834  0.1183  0.2295
    1DIPC   D3B23579  23.043   3.324   3.522 -0.1540 -0.1031 -0.1469
    1DIPC   C4B23580  22.618   3.171   3.413 -0.2194  0.2496  0.1145
    1DIPC   NC323581  21.602  21.034   3.415  0.1051 -0.0249  0.0283
    1DIPC   PO423582  21.581  20.572   3.495 -0.0646  0.1047  0.0050
    1DIPC   GL123583  21.384  20.724   3.836  0.0478 -0.0345  0.2996
    1DIPC   GL223584  21.689  21.000   3.924  0.1309 -0.1329  0.2174
    1DIPC   C1A23585  20.948  20.841   4.029  0.0092 -0.0243  0.0868
    1DIPC   D2A23586  20.672  20.911   4.359  0.1022  0.3274 -0.1552
    1DIPC   D3A23587  20.866  20.805   4.668  0.0844  0.1161 -0.0480
    1DIPC   C4A23588  20.569  20.690   5.078 -0.1869 -0.3231 -0.1441
    1DIPC   C1B23589  21.659  21.178   4.340  0.0297  0.0480  0.1121
    1DIPC   D2B23590  21.457  21.318   4.654 -0.1134 -0.2877 -0.0306
    1DIPC   D3B23591  21.599  21.253   5.091 -0.0020 -0.1951 -0.0292
    1DIPC   C4B23592  21.842  20.969   5.238 -0.0585  0.1231  0.0712
    1DIPC   NC323593   7.047  11.762   2.571  0.1435  0.0982 -0.1123
    1DIPC   PO423594   7.297  11.899   2.979  0.1230 -0.1115 -0.0719
    1DIPC   GL123595   7.314  12.063   3.347  0.3955  0.2800 -0.1519
    1DIPC   GL223596   7.579  11.870   3.452  0.4205  0.0315 -0.2422
    1DIPC   C1A23597   7.320  12.059   3.772  0.3502  0.1520  0.1526
    1DIPC   D2A23598   7.462  12.258   4.209 -0.3974  0.2000 -0.0228
    1DIPC   D3A23599   7.402  12.541   3.895  0.2192 -0.1114 -0.1302
    1DIPC   C4A23600   7.106  12.894   3.879 -0.3030  0.1208  0.1603
    1DIPC   C1B23601   7.507  11.580   3.825  0.0630 -0.0270  0.0732
    1DIPC   D2B23602   7.436  11.676   4.247 -0.1710  0.0721  0.0076
    1DIPC   D3B23603   7.327  11.528   4.591 -0.0044  0.1197  0.2690
    1DIPC   C4B23604   7.095  11.144   4.592  0.1152  0.1701 -0.1158
    1DIPC   NC323605   6.073  18.128   2.542 -0.0150  0.0998 -0.0541
    1DIPC   PO423606   6.205  18.619   2.503  0.1411 -0.2969 -0.1564
    1DIPC   GL123607   6.052  18.877   2.946  0.0360  0.0485  0.1184
    1DIPC   GL223608   5.695  18.967   3.008  0.1171 -0.1486 -0.2156
    1DIPC   C1A23609   6.106  19.367   3.052 -0.0057  0.1584 -0.0383
    1DIPC   D2A23610   6.263  19.820   3.246 -0.3409 -0.1676 -0.0034
    1DIPC   D3A23611   6.522  19.585   3.325 -0.4039 -0.1280 -0.0588
    1DIPC   C4A23612   6.594  19.450   3.756  0.0650  0.0170  0.2906
    1DIPC   C1B23613   5.450  18.876   3.358 -0.1901  0.2894  0.1294
    1DIPC   D2B23614   5.219  18.720   3.751 -0.4161  0.0257  0.0704
    1DIPC   D3B23615   5.044  18.371   4.078  0.1772 -0.0154  0.1712
    1DIPC   C4B23616   5.130  18.269   4.533 -0.2642  0.1881  0.2275
    1DIPC   NC323617  13.581   1.322   3.577  0.1592 -0.2060  0.1545
    1DIPC   PO423618  13.571   1.160   4.052 -0.0117  0.0332  0.1483
    1DIPC   GL123619  13.860   1.270   4.438 -0.2518  0.1538 -0.0283
    1DIPC   GL223620  13.668   1.342   4.680 -0.0797  0.0532 -0.1086
    1DIPC   C1A23621  14.202   1.295   4.687  0.3658  0.0571  0.1310
    1DIPC   D2A23622  14.067   1.147   5.025 -0.1972  0.0383 -0.0327
    1DIPC   D3A23623  14.278   1.298   5.454  0.0324  0.1123  0.1038
    1DIPC   C4A23624  14.442   0.906   5.763 -0.0115  0.0395 -0.4666
    1DIPC   C1B23625  13.571   1.455   5.134  0.1023 -0.0850  0.0659
    1DIPC   D2B23626  13.213   1.632   5.432  0.2398  0.0217  0.1457
    1DIPC   D3B23627  13.287   1.382   5.756  0.0787 -0.0697  0.3198
    1DIPC   C4B23628  13.543   1.462   5.976 -0.0568  0.0683 -0.0978
    1DIPC   NC323629   5.027  10.960   3.235  0.0142  0.2350 -0.0975
    1DIPC   PO423630   4.927  11.388   3.054  0.1671 -0.0783 -0.0931
    1DIPC   GL123631   4.705  11.681   3.193 -0.0355 -0.1180 -0.2890
    1DIPC   GL223632   5.002  11.866   3.250  0.1075 -0.1893 -0.0217
    1DIPC   C1A23633   4.564  11.822   3.589 -0.1618  0.0129  0.5064
    1DIPC   D2A23634   4.281  11.573   3.820  0.1344 -0.1225  0.0171
    1DIPC   D3A23635   4.082  11.497   4.178  0.0377  0.0741 -0.0609
    1DIPC   C4A23636   4.117  11.090   4.335  0.0864 -0.2724  0.2188
    1DIPC   C1B23637   4.964  12.186   3.527 -0.1797  0.2714  0.2085
    1DIPC   D2B23638   4.770  12.214   3.903  0.1441 -0.0305 -0.1590
    1DIPC   D3B23639   4.345  12.082   3.989  0.0545  0.0810  0.0144
    1DIPC   C4B23640   3.957  12.226   4.149 -0.2465  0.0954 -0.3613
    1DIPC   NC323641  17.887   7.658   3.131 -0.3193  0.4626  0.0492
    1DIPC   PO423642  17.514   7.509   3.153  0.1609  0.1375  0.0513
    1DIPC   GL123643  17.623   7.595   3.562  0.1665 -0.0956  0.1145
    1DIPC   GL223644  17.922   7.900   3.650 -0.1284  0.0830  0.2181
    1DIPC   C1A23645  17.557   7.709   3.912 -0.0045 -0.1083 -0.0214
    1DIPC   D2A23646  17.245   7.760   4.117  0.4164  0.3983 -0.1802
    1DIPC   D3A23647  16.921   7.973   3.993 -0.4667 -0.3241  0.2842
    1DIPC   C4A23648  16.893   8.319   3.738  0.1612 -0.1605 -0.3891
    1DIPC   C1B23649  17.916   8.178   3.959 -0.1108  0.1364  0.1297
    1DIPC   D2B23650  17.999   8.180   4.358  0.1751  0.0510 -0.5127
    1DIPC   D3B23651  18.245   8.444   4.693  0.0320  0.0591  0.1775
    1DIPC   C4B23652  18.124   8.854   4.671 -0.1453 -0.0080  0.0526
    1DIPC   NC323653   3.297   3.910   2.438  0.0282 -0.0217 -0.1362
    1DIPC   PO423654   2.976   3.612   2.374  0.0161  0.0847  0.3159
    1DIPC   GL123655   3.021   3.790   2.877 -0.0870  0.1826 -0.1879
    1DIPC   GL223656   3.139   4.049   2.960  0.1034  0.2082 -0.2443
    1DIPC   C1A23657   2.903   3.693   3.301 -0.1334 -0.1175  0.0103
    1DIPC   D2A23658   2.722   3.635   3.709 -0.0354  0.0977  0.0648
    1DIPC   D3A23659   2.428   3.505   3.449  0.0363  0.1474  0.1788
    1DIPC   C4A23660   2.360   3.870   3.153  0.4278  0.0259 -0.0487
    1DIPC   C1B23661   3.403   3.828   3.229  0.1520  0.0076  0.2122
    1DIPC   D2B23662   3.562   3.375   3.285 -0.0829 -0.2053 -0.1002
    1DIPC   D3B23663   3.253   3.437   3.582  0.0280  0.1040 -0.0289
    1DIPC   C4B23664   3.159   3.909   3.666  0.1152  0.0870  0.1494
    1DIPC   NC323665  15.884  24.339   2.569  0.1907  0.1816 -0.0121
    1DIPC   PO423666  15.834  24.469   2.949 -0.1640 -0.0887 -0.1643
    1DIPC   GL123667  15.849  24.558   3.404  0.2463  0.1635  0.1682
    1DIPC   GL223668  15.702  24.304   3.556 -0.1155  0.1800  0.3636
    1DIPC   C1A23669  15.967  24.732   3.726  0.5340  0.0026  0.2081
    1DIPC   D2A23670  16.288  25.031   3.802 -0.0631  0.2741 -0.0117
    1DIPC   D3A23671  16.506  25.094   4.161  0.1067 -0.1187 -0.0066
    1DIPC   C4A23672  16.555  24.776   4.488 -0.0617 -0.3999  0.1138
    1DIPC   C1B23673  15.630  23.789   3.610 -0.1967  0.0995  0.1318
    1DIPC   D2B23674  15.692  23.427   3.587 -0.1134 -0.1075 -0.1289
    1DIPC   D3B23675  15.433  23.480   3.948 -0.3913 -0.1213  0.0543
    1DIPC   C4B23676  15.527  23.888   4.038  0.0168  0.1064 -0.3249
    1DIPC   NC323677  11.515   0.508   3.961 -0.1684  0.3224  0.0933
    1DIPC   PO423678  11.410   0.898   4.107  0.1435  0.0174 -0.0031
    1DIPC   GL123679  11.280   1.182   4.321 -0.0348  0.0667  0.0695
    1DIPC   GL223680  11.259   1.521   4.250 -0.2236 -0.0818  0.4504
    1DIPC   C1A23681  10.927   1.371   4.584  0.1357 -0.2599  0.0053
    1DIPC   D2A23682  10.944   1.748   4.938  0.0790 -0.1156 -0.6021
    1DIPC   D3A23683  11.007   1.569   5.249 -0.0042  0.3198 -0.3868
    1DIPC   C4A23684  11.305   1.191   5.313 -0.0391 -0.0445  0.3040
    1DIPC   C1B23685  11.723   1.263   4.477  0.0599 -0.0742  0.1817
    1DIPC   D2B23686  12.006   1.331   4.856 -0.0627  0.0926 -0.0356
    1DIPC   D3B23687  11.758   1.472   5.223 -0.1462  0.3026  0.0602
    1DIPC   C4B23688  11.672   1.104   5.636 -0.0009 -0.0447 -0.2235
    1DIPC   NC323689  23.345   1.722   2.385 -0.2373 -0.0140 -0.2102
    1DIPC   PO423690  23.252   1.441   2.692 -0.1054  0.0418 -0.1078
    1DIPC   GL123691  23.460   1.397   3.142 -0.2036  0.1781 -0.0696
    1DIPC   GL223692  23.460   1.028   3.123  0.1647  0.1550  0.0949
    1DIPC   C1A23693  23.755   1.268   3.454 -0.1080 -0.0252 -0.1389
    1DIPC   D2A23694  23.970   1.460   3.773  0.6203 -0.3205  0.0106
    1DIPC   D3A23695  23.506   1.699   3.722 -0.1221 -0.2297 -0.3328
    1DIPC   C4A23696  23.306   1.991   3.922 -0.2160 -0.0636  0.2636
    1DIPC   C1B23697  23.380   0.806   3.426 -0.2053 -0.0287  0.2385
    1DIPC   D2B23698  23.561   0.574   3.724  0.0535  0.0201  0.0059
    1DIPC   D3B23699  23.308   0.762   4.115  0.0084  0.1067  0.1698
    1DIPC   C4B23700  23.552   0.847   4.529  0.3576 -0.2414  0.1628
    1DIPC   NC323701  24.273  17.119   2.574 -0.0424 -0.1590 -0.0380
    1DIPC   PO423702  24.649  16.821   2.491 -0.0124  0.3357 -0.1547
    1DIPC   GL123703  24.313  16.548   2.724  0.2134 -0.1833  0.0054
    1DIPC   GL223704  24.279  16.797   2.982 -0.0409  0.1675 -0.0481
    1DIPC   C1A23705  24.008  16.393   3.055  0.1632  0.2143 -0.1364
    1DIPC   D2A23706  23.760  16.375   3.347  0.0049  0.0904 -0.0596
    1DIPC   D3A23707  23.431  16.230   3.378 -0.1272  0.0853 -0.1209
    1DIPC   C4A23708  23.121  16.368   3.627 -0.0643 -0.1978  0.1706
    1DIPC   C1B23709  24.452  16.648   3.279  0.3123  0.0865  0.1621
    1DIPC   D2B23710  24.584  16.633   3.732 -0.1751 -0.1878 -0.0479
    1DIPC   D3B23711  24.732  17.056   3.873 -0.0137 -0.1771  0.1781
    1DIPC   C4B23712  24.866  17.284   4.233  0.1799  0.2996  0.2949
    1DIPC   NC323713   8.637   0.007   3.067  0.0829 -0.0428  0.0475
    1DIPC   PO423714   8.377   0.438   3.069 -0.6167  0.0214  0.1795
    1DIPC   GL123715   8.478   0.351   3.532  0.0316 -0.2606 -0.1422
    1DIPC   GL223716   8.200   0.214   3.674  0.0268  0.1620 -0.1977
    1DIPC   C1A23717   8.612   0.336   3.990 -0.1365  0.1111 -0.4225
    1DIPC   D2A23718   8.631   0.210   4.477  0.0265 -0.2937 -0.1744
    1DIPC   D3A23719   8.662   0.102   4.949 -0.0077  0.5047  0.0775
    1DIPC   C4A23720   8.828   0.306   5.344 -0.2058 -0.0655  0.1005
    1DIPC   C1B23721   8.049   0.564   3.946  0.0663 -0.4135 -0.1378
    1DIPC   D2B23722   7.749   0.584   4.340 -0.0126  0.0160  0.0613
    1DIPC   D3B23723   7.811   0.221   4.690  0.0008  0.2002  0.1885
    1DIPC   C4B23724   7.351   0.138   4.803  0.0003 -0.0255 -0.0787
    1DIPC   NC323725   8.937  18.267   2.381  0.2627 -0.0724 -0.0978
    1DIPC   PO423726   8.868  18.812   2.563  0.1225  0.0991  0.2098
    1DIPC   GL123727   8.674  18.887   2.972 -0.2559  0.0356 -0.0877
    1DIPC   GL223728   8.420  18.715   3.072 -0.2260 -0.0386 -0.0204
    1DIPC   C1A23729   8.909  18.779   3.241  0.1117  0.0459  0.1211
    1DIPC   D2A23730   9.314  18.786   3.439  0.1438 -0.0059  0.0450
    1DIPC   D3A23731   9.243  18.746   3.822 -0.1041  0.1083 -0.1186
    1DIPC   C4A23732   9.368  18.801   4.199 -0.0138 -0.3150  0.0969
    1DIPC   C1B23733   8.113  18.614   3.344 -0.0014 -0.0710 -0.0598
    1DIPC   D2B23734   7.858  18.550   3.606  0.0323 -0.0599  0.2301
    1DIPC   D3B23735   8.250  18.708   3.830 -0.2272  0.2467  0.1078
    1DIPC   C4B23736   8.476  18.969   4.055  0.0767  0.0230 -0.1411
    1DIPC   NC323737   2.630   4.458   2.376 -0.0454  0.1796  0.0120
    1DIPC   PO423738   2.703   4.009   2.540  0.3708 -0.0708 -0.0122
    1DIPC   GL123739   2.677   4.244   2.998  0.1267  0.0149  0.2568
    1DIPC   GL223740   2.904   4.404   3.195 -0.0815  0.2234  0.0920
    1DIPC   C1A23741   2.593   4.102   3.487  0.2296  0.2976 -0.2175
    1DIPC   D2A23742   2.410   4.195   3.805 -0.1830 -0.0122  0.2810
    1DIPC   D3A23743   2.714   4.050   4.081  0.0395  0.0793  0.0233
    1DIPC   C4A23744   2.545   3.979   4.561 -0.0919 -0.0502  0.2681
    1DIPC   C1B23745   2.874   4.488   3.615 -0.1919  0.1882 -0.0441
    1DIPC   D2B23746   2.806   4.505   3.991 -0.0883  0.0387 -0.2417
    1DIPC   D3B23747   2.371   4.662   4.167 -0.2568  0.1474 -0.1961
    1DIPC   C4B23748   1.923   4.998   4.195 -0.2502 -0.1326 -0.1331
    1DIPC   NC323749  27.449  25.716   2.428 -0.1181  0.0799 -0.1426
    1DIPC   PO423750  27.380  25.394   2.695 -0.1723  0.1434  0.2332
    1DIPC   GL123751  27.469  25.389   3.154  0.1322 -0.3021 -0.0036
    1DIPC   GL223752  27.779  25.299   3.174  0.0242 -0.0878 -0.0166
    1DIPC   C1A23753  27.840  25.626   3.477 -0.0220  0.1014  0.0527
    1DIPC   D2A23754  27.874  25.911   3.655  0.2581 -0.1297 -0.1898
    1DIPC   D3A23755  27.522  25.996   3.884  0.3082 -0.2735  0.0398
    1DIPC   C4A23756  27.236  25.599   4.139  0.0084 -0.2053 -0.0581
    1DIPC   C1B23757  27.736  25.073   3.561 -0.2681  0.0665  0.1027
    1DIPC   D2B23758  27.659  24.637   3.834 -0.0533 -0.1215  0.0547
    1DIPC   D3B23759  27.646  24.615   4.349  0.2696 -0.1080 -0.0911
    1DIPC   C4B23760  27.149  24.603   4.364  0.0015  0.1851 -0.3293
    1DIPC   NC323761  29.148  22.665   2.852  0.2764 -0.1412 -0.2396
    1DIPC   PO423762  29.456  23.023   2.981 -0.0302  0.0761  0.3624
    1DIPC   GL123763  29.452  22.930   3.423 -0.0729 -0.0036 -0.0149
    1DIPC   GL223764  29.682  23.025   3.648 -0.0353 -0.0395 -0.1953
    1DIPC   C1A23765  29.126  22.787   3.715  0.0457 -0.0180  0.0377
    1DIPC   D2A23766  29.095  22.824   4.130 -0.1507  0.2783  0.0375
    1DIPC   D3A23767  29.135  22.533   4.409 -0.0270 -0.2099  0.0494
    1DIPC   C4A23768  29.511  22.267   4.327 -0.0348  0.0829  0.0072
    1DIPC   C1B23769  30.030  22.889   3.964 -0.3833 -0.2067  0.0639
    1DIPC   D2B23770  30.311  23.125   4.237 -0.1557  0.1060  0.0108
    1DIPC   D3B23771  30.339  23.479   4.457  0.0714  0.0389  0.0187
    1DIPC   C4B23772  30.100  23.655   4.762  0.0545  0.1804  0.3037
    1DIPC   NC323773   3.115  18.057   2.580  0.2287 -0.0066 -0.1815
    1DIPC   PO423774   2.848  17.651   2.666 -0.2184 -0.0756 -0.0026
    1DIPC   GL123775   2.620  17.804   2.957  0.1956  0.1994  0.1263
    1DIPC   GL223776   2.480  17.569   3.065  0.2637  0.0227  0.1045
    1DIPC   C1A23777   2.667  18.053   3.331 -0.0467 -0.3125  0.1110
    1DIPC   D2A23778   2.835  18.233   3.660  0.1616 -0.1595  0.0136
    1DIPC   D3A23779   3.236  18.143   3.495  0.0773  0.0941 -0.0489
    1DIPC   C4A23780   3.368  17.790   3.410 -0.3539  0.0616 -0.0929
    1DIPC   C1B23781   2.852  17.590   3.430 -0.1795 -0.0320 -0.0943
    1DIPC   D2B23782   3.152  17.647   3.841  0.0325 -0.1214 -0.1835
    1DIPC   D3B23783   3.148  18.049   3.989 -0.3389  0.0357 -0.2667
    1DIPC   C4B23784   3.185  18.312   4.345 -0.0402 -0.1470  0.0591
    1DIPC   NC323785  15.093  29.059   3.780  0.2468 -0.0662  0.0951
    1DIPC   PO423786  15.358  28.742   4.126 -0.2528  0.0031  0.0147
    1DIPC   GL123787  15.064  28.848   4.390  0.3144 -0.0604  0.2356
    1DIPC   GL223788  15.077  28.621   4.606 -0.1167  0.0018  0.2125
    1DIPC   C1A23789  14.896  29.009   4.819  0.1691 -0.0104  0.0538
    1DIPC   D2A23790  14.576  29.291   5.037  0.0323 -0.2785  0.0086
    1DIPC   D3A23791  14.576  29.629   5.328  0.0673 -0.3304  0.0732
    1DIPC   C4A23792  14.201  29.720   5.604  0.3496  0.0904  0.0856
    1DIPC   C1B23793  15.433  28.889   4.744 -0.0696 -0.0542 -0.4113
    1DIPC   D2B23794  15.846  28.920   4.862  0.0677  0.1854  0.1733
    1DIPC   D3B23795  15.894  29.071   5.300  0.0314 -0.1614  0.0648
    1DIPC   C4B23796  16.259  29.105   5.356  0.0804 -0.0497  0.0079
    1DIPC   NC323797   1.846   7.204   2.082 -0.1131  0.0431  0.0972
    1DIPC   PO423798   1.642   6.870   2.199 -0.2529  0.1710 -0.1841
    1DIPC   GL123799   1.656   6.993   2.639  0.2428 -0.0236  0.0037
    1DIPC   GL223800   1.990   6.763   2.818  0.1452 -0.2127  0.1547
    1DIPC   C1A23801   1.382   6.963   2.995  0.2634 -0.1860  0.0721
    1DIPC   D2A23802   1.130   7.008   3.278 -0.0764  0.0016 -0.1192
    1DIPC   D3A23803   1.197   6.645   3.347  0.2808  0.2590 -0.1534
    1DIPC   C4A23804   1.434   6.393   3.046  0.3275  0.1825  0.0268
    1DIPC   C1B23805   1.890   6.679   3.230 -0.2006 -0.0295  0.0203
    1DIPC   D2B23806   1.954   6.564   3.664 -0.0877 -0.1784 -0.1652
    1DIPC   D3B23807   2.021   6.974   3.759  0.0774  0.1127 -0.1727
    1DIPC   C4B23808   1.677   7.242   4.059  0.2399  0.0398  0.5316
    1DIPC   NC323809  29.284  26.018   3.245  0.1129  0.0345 -0.1157
    1DIPC   PO423810  29.409  25.658   3.220 -0.1724 -0.4739 -0.2722
    1DIPC   GL123811  29.123  25.550   3.503  0.2040 -0.1699 -0.0077
    1DIPC   GL223812  29.047  25.761   3.705  0.2211 -0.1525 -0.4184
    1DIPC   C1A23813  29.059  25.272   3.765 -0.1529  0.0098 -0.2755
    1DIPC   D2A23814  28.966  25.191   4.238 -0.2012  0.0306 -0.3930
    1DIPC   D3A23815  28.612  25.312   3.917  0.1137  0.1132  0.0174
    1DIPC   C4A23816  28.147  25.255   3.785  0.4218  0.1094 -0.0437
    1DIPC   C1B23817  28.792  25.751   4.085 -0.2588 -0.1896  0.1167
    1DIPC   D2B23818  28.582  25.630   4.388 -0.2435 -0.1231 -0.3995
    1DIPC   D3B23819  28.432  25.864   4.703 -0.2056 -0.1020  0.1665
    1DIPC   C4B23820  28.120  25.537   4.745 -0.1205 -0.0811  0.1879
    1DIPC   NC323821   7.756  29.188   2.828  0.3079  0.4096 -0.1188
    1DIPC   PO423822   8.275  29.012   3.056  0.0455  0.0341 -0.1385
    1DIPC   GL123823   8.461  29.167   3.482 -0.1506  0.0293  0.2485
    1DIPC   GL223824   8.821  29.160   3.453  0.1067  0.0067 -0.0909
    1DIPC   C1A23825   8.366  29.246   3.965 -0.1060 -0.0800 -0.2340
    1DIPC   D2A23826   8.134  29.604   4.277  0.0574  0.0494  0.1914
    1DIPC   D3A23827   8.037  29.080   4.424 -0.1835  0.2599  0.1931
    1DIPC   C4A23828   8.027  28.902   4.869 -0.0632  0.0734 -0.2690
    1DIPC   C1B23829   8.838  29.169   3.946 -0.2051 -0.0233 -0.0262
    1DIPC   D2B23830   8.999  28.946   4.222 -0.0022 -0.1502  0.3496
    1DIPC   D3B23831   8.616  29.103   4.368  0.1091 -0.0843  0.4493
    1DIPC   C4B23832   8.492  29.001   4.882  0.0117 -0.2483  0.2881
    1DIPC   NC323833   6.292  19.285   1.706  0.1551  0.0394  0.0226
    1DIPC   PO423834   6.342  19.342   2.170  0.1275  0.0138 -0.0350
    1DIPC   GL123835   6.350  19.588   2.561 -0.2097 -0.0242  0.1458
    1DIPC   GL223836   6.029  19.871   2.592  0.0515  0.3414 -0.0086
    1DIPC   C1A23837   6.499  19.964   2.835 -0.2444 -0.0134  0.1438
    1DIPC   D2A23838   6.729  19.974   3.130 -0.1004 -0.0578  0.2299
    1DIPC   D3A23839   6.643  20.012   3.604 -0.3540  0.1005  0.2467
    1DIPC   C4A23840   6.514  20.429   3.776 -0.0240  0.3523  0.0127
    1DIPC   C1B23841   5.821  19.845   2.972 -0.0343  0.0807  0.2079
    1DIPC   D2B23842   5.590  19.819   3.369 -0.1913  0.3672 -0.1771
    1DIPC   D3B23843   5.963  19.577   3.584  0.0115 -0.2799 -0.0118
    1DIPC   C4B23844   6.204  19.232   3.548  0.1232  0.1209  0.3904
    1DIPC   NC323845   5.580  15.979   2.363 -0.0945 -0.0330  0.1841
    1DIPC   PO423846   5.918  15.725   2.263  0.1487 -0.0026  0.2829
    1DIPC   GL123847   6.039  15.758   2.694 -0.0874  0.2444 -0.0296
    1DIPC   GL223848   6.335  15.892   2.792 -0.3435  0.1988  0.0909
    1DIPC   C1A23849   5.772  15.700   3.060  0.0215 -0.1620  0.2058
    1DIPC   D2A23850   5.675  15.895   3.382  0.0673 -0.2871  0.2920
    1DIPC   D3A23851   5.847  16.024   3.684 -0.1267 -0.1133  0.0497
    1DIPC   C4A23852   5.836  15.901   4.080  0.0798  0.1087 -0.3983
    1DIPC   C1B23853   6.470  15.543   3.133  0.1166 -0.0442  0.2394
    1DIPC   D2B23854   6.421  15.108   3.272  0.2226 -0.0734 -0.0001
    1DIPC   D3B23855   6.485  14.986   3.613 -0.2389  0.0032 -0.1116
    1DIPC   C4B23856   6.835  14.932   3.754  0.0913  0.0333  0.1067
    1DIPC   NC323857   0.769   7.348   3.066  0.1171  0.0754  0.2016
    1DIPC   PO423858   0.502   7.501   2.816  0.0437  0.1842 -0.0562
    1DIPC   GL123859   0.161   7.491   3.141  0.2095  0.1510  0.0400
    1DIPC   GL223860  -0.215   7.560   3.121 -0.1965 -0.0680  0.0544
    1DIPC   C1A23861  -0.014   7.512   3.565  0.1091 -0.0469 -0.1999
    1DIPC   D2A23862  -0.200   7.275   3.906 -0.0295  0.3412 -0.0470
    1DIPC   D3A23863  -0.630   7.381   3.834 -0.2008  0.1227  0.0995
    1DIPC   C4A23864  -1.032   7.324   3.644  0.1132  0.0833 -0.3157
    1DIPC   C1B23865  -0.587   7.312   3.347 -0.0490 -0.0154  0.0977
    1DIPC   D2B23866  -0.784   6.996   3.285  0.1895 -0.0005  0.0497
    1DIPC   D3B23867  -1.357   6.987   3.282  0.0105 -0.0098  0.2384
    1DIPC   C4B23868  -1.468   6.541   3.235  0.0171  0.2493  0.3173
    1DIPC   NC323869   7.016  24.282   2.370  0.1586 -0.1757  0.2248
    1DIPC   PO423870   7.058  24.083   2.805 -0.1617  0.1266 -0.0568
    1DIPC   GL123871   7.083  23.998   3.146  0.3946  0.0509  0.1729
    1DIPC   GL223872   7.420  24.202   3.123 -0.1256 -0.1545 -0.0029
    1DIPC   C1A23873   7.172  23.897   3.515 -0.0398 -0.2029 -0.2024
    1DIPC   D2A23874   7.435  23.649   3.824  0.2532 -0.0952 -0.2877
    1DIPC   D3A23875   7.182  23.817   4.154 -0.1947  0.2304  0.2827
    1DIPC   C4A23876   6.873  23.671   4.401 -0.2031 -0.1073 -0.0515
    1DIPC   C1B23877   7.390  24.466   3.409 -0.0024 -0.2059  0.0035
    1DIPC   D2B23878   7.528  24.789   3.700 -0.1492 -0.2907 -0.0900
    1DIPC   D3B23879   7.752  24.575   4.046  0.2474  0.0207  0.4062
    1DIPC   C4B23880   7.589  24.462   4.424  0.1102  0.1715  0.0305
    1DIPC   NC323881   9.473   5.614   3.399 -0.1613  0.1193  0.2553
    1DIPC   PO423882   9.313   5.282   3.645  0.1178 -0.2148 -0.2684
    1DIPC   GL123883   9.439   5.181   4.039  0.0656  0.0745  0.0995
    1DIPC   GL223884   9.531   4.868   4.126 -0.1645  0.0168 -0.0420
    1DIPC   C1A23885   9.239   5.243   4.470 -0.1267  0.0374 -0.0375
    1DIPC   D2A23886   9.023   5.461   4.886 -0.0598  0.0728  0.2471
    1DIPC   D3A23887   8.987   5.177   5.237  0.5267 -0.4342 -0.2797
    1DIPC   C4A23888   8.703   5.251   5.455  0.0100  0.0250 -0.3762
    1DIPC   C1B23889   9.538   4.741   4.506 -0.2546 -0.1207 -0.0491
    1DIPC   D2B23890   9.797   4.885   4.878  0.2143  0.3465 -0.0264
    1DIPC   D3B23891   9.585   4.517   5.002 -0.0881 -0.1865  0.3661
    1DIPC   C4B23892   9.217   4.440   5.136  0.1267  0.2180  0.1172
    1DIPC   NC323893  13.708   4.962   4.194  0.0812 -0.0781  0.2136
    1DIPC   PO423894  13.479   5.358   3.936  0.2877 -0.2682 -0.1250
    1DIPC   GL123895  13.329   5.476   4.363  0.0061 -0.0431  0.0754
    1DIPC   GL223896  13.491   5.710   4.532  0.3121 -0.0321 -0.0089
    1DIPC   C1A23897  13.056   5.597   4.745  0.1562  0.1704  0.2533
    1DIPC   D2A23898  13.047   5.600   5.077  0.1513 -0.1406  0.2030
    1DIPC   D3A23899  12.675   5.338   5.187  0.0589  0.1252 -0.2326
    1DIPC   C4A23900  12.811   4.995   5.375  0.0429 -0.1714 -0.2194
    1DIPC   C1B23901  13.486   5.386   4.896 -0.0448  0.0124  0.0382
    1DIPC   D2B23902  13.663   4.964   4.835 -0.2515  0.0784  0.1355
    1DIPC   D3B23903  13.351   4.593   5.012 -0.1450  0.0093 -0.0918
    1DIPC   C4B23904  13.236   4.529   5.398  0.0363 -0.0306  0.1359
    1DIPC   NC323905   5.757  12.703   2.955  0.3815  0.0728  0.0061
    1DIPC   PO423906   5.683  12.275   2.863  0.1874 -0.0020  0.0464
    1DIPC   GL123907   5.697  12.360   3.258  0.2120 -0.2341  0.1058
    1DIPC   GL223908   5.817  12.720   3.428  0.1235  0.1261 -0.1602
    1DIPC   C1A23909   5.590  12.246   3.709 -0.4464 -0.1500 -0.3306
    1DIPC   D2A23910   5.645  11.956   3.942 -0.0809 -0.0352 -0.2910
    1DIPC   D3A23911   5.206  11.982   3.959 -0.1237  0.1614 -0.0234
    1DIPC   C4A23912   5.102  11.867   4.357 -0.0756  0.3130 -0.0047
    1DIPC   C1B23913   5.655  12.976   3.672  0.3502  0.2793  0.3706
    1DIPC   D2B23914   5.230  13.096   3.894  0.1250  0.0432  0.4209
    1DIPC   D3B23915   5.184  12.892   4.294 -0.0657  0.0421  0.1126
    1DIPC   C4B23916   5.086  12.469   4.460  0.1012  0.1539 -0.1317
    1DIPC   NC323917   3.395  20.361   2.562 -0.1537  0.0788 -0.0304
    1DIPC   PO423918   3.448  19.921   2.366  0.0156 -0.1272  0.0504
    1DIPC   GL123919   3.579  19.595   2.639  0.0342 -0.0879  0.1331
    1DIPC   GL223920   3.785  19.368   2.856 -0.3336  0.0159 -0.2830
    1DIPC   C1A23921   3.342  19.436   3.024 -0.0424 -0.3760 -0.0472
    1DIPC   D2A23922   3.298  18.930   3.254 -0.2476  0.1111  0.1017
    1DIPC   D3A23923   3.243  19.249   3.601  0.2789 -0.0399 -0.2155
    1DIPC   C4A23924   3.581  19.308   3.969  0.0103  0.0233  0.2558
    1DIPC   C1B23925   4.145  19.243   3.109  0.0996 -0.2622  0.1314
    1DIPC   D2B23926   4.537  19.400   3.275 -0.1237  0.0358  0.1051
    1DIPC   D3B23927   4.337  19.700   3.626  0.2438 -0.0159 -0.1688
    1DIPC   C4B23928   3.916  19.631   3.780  0.0994  0.0028 -0.1748
    1DIPC   NC323929  18.514  21.964   3.012 -0.1544 -0.0175 -0.2600
    1DIPC   PO423930  18.232  22.118   2.939 -0.1042 -0.0660 -0.0222
    1DIPC   GL123931  18.259  22.296   3.315 -0.0509 -0.0173 -0.2114
    1DIPC   GL223932  18.316  22.619   3.443 -0.0110 -0.0016  0.2006
    1DIPC   C1A23933  18.326  22.173   3.711  0.0642 -0.0263 -0.0434
    1DIPC   D2A23934  18.548  22.209   4.103 -0.2571  0.1945 -0.1810
    1DIPC   D3A23935  18.278  22.328   4.358  0.1456 -0.1078 -0.1414
    1DIPC   C4A23936  18.012  22.514   4.171  0.1066 -0.1312 -0.1895
    1DIPC   C1B23937  18.400  22.636   3.912 -0.0539 -0.1995  0.0008
    1DIPC   D2B23938  18.495  22.951   4.192 -0.1878 -0.1688  0.2482
    1DIPC   D3B23939  18.606  23.177   4.627 -0.1705 -0.4233  0.1120
    1DIPC   C4B23940  18.549  23.650   4.680 -0.2022 -0.2560  0.1908
    1DIPC   NC323941   0.042  14.617   2.371  0.0185  0.1100 -0.1384
    1DIPC   PO423942  -0.288  14.886   2.396 -0.2039 -0.0322  0.1398
    1DIPC   GL123943  -0.323  15.131   2.802  0.0732 -0.0898  0.2480
    1DIPC   GL223944  -0.642  15.160   2.747  0.0149 -0.0934  0.0881
    1DIPC   C1A23945  -0.060  15.355   3.024  0.1082  0.0306  0.2397
    1DIPC   D2A23946   0.375  15.481   3.007  0.0040  0.0547 -0.1371
    1DIPC   D3A23947   0.460  15.769   3.368  0.0976 -0.0227 -0.1410
    1DIPC   C4A23948   0.919  15.845   3.439 -0.0224  0.0795 -0.0718
    1DIPC   C1B23949  -0.675  15.302   3.202 -0.4782 -0.2208  0.2399
    1DIPC   D2B23950  -0.233  15.269   3.481  0.0927 -0.1555  0.3158
    1DIPC   D3B23951  -0.408  15.415   3.820  0.1478 -0.0193 -0.3260
    1DIPC   C4B23952  -0.844  15.200   3.635 -0.2023  0.2316 -0.2078
    1DIPC   NC323953  14.343  23.717   3.149 -0.0523  0.0770  0.0083
    1DIPC   PO423954  14.139  23.961   3.469  0.0466 -0.0267 -0.1039
    1DIPC   GL123955  14.008  24.017   3.942 -0.0709 -0.2342 -0.1242
    1DIPC   GL223956  13.886  24.310   3.879 -0.1007 -0.1016  0.0688
    1DIPC   C1A23957  14.133  23.884   4.400  0.3665 -0.0330 -0.3226
    1DIPC   D2A23958  14.130  23.489   4.675  0.0772 -0.0883 -0.1305
    1DIPC   D3A23959  14.552  23.361   4.720 -0.2615  0.0723 -0.2706
    1DIPC   C4A23960  14.735  22.852   4.571 -0.1804 -0.2597  0.1763
    1DIPC   C1B23961  13.832  24.416   4.268  0.0462 -0.1080  0.0948
    1DIPC   D2B23962  13.741  24.328   4.694  0.0112  0.0696  0.1236
    1DIPC   D3B23963  13.847  24.004   4.941 -0.1770 -0.1122  0.2841
    1DIPC   C4B23964  14.032  23.677   5.232 -0.1647 -0.3002 -0.3878
    1DIPC   NC323965   1.837  28.215   3.243  0.1304 -0.3363  0.1840
    1DIPC   PO423966   2.061  28.588   3.262 -0.1591 -0.1191  0.0660
    1DIPC   GL123967   2.066  28.449   3.743 -0.0559  0.0873  0.3472
    1DIPC   GL223968   2.127  28.086   3.925  0.1379  0.0016  0.0622
    1DIPC   C1A23969   2.058  28.676   4.205  0.0243  0.0303  0.0438
    1DIPC   D2A23970   2.435  28.647   4.473 -0.0985  0.1123  0.1665
    1DIPC   D3A23971   2.616  28.527   4.058  0.1489  0.2028  0.0257
    1DIPC   C4A23972   2.692  28.435   3.633 -0.2510  0.5328  0.0480
    1DIPC   C1B23973   2.110  28.250   4.354  0.2897 -0.3703 -0.1873
    1DIPC   D2B23974   1.987  28.441   4.813 -0.0314  0.1623  0.0829
    1DIPC   D3B23975   2.086  28.574   5.181 -0.2285  0.0033 -0.5166
    1DIPC   C4B23976   2.234  28.941   5.423 -0.1051 -0.0215  0.0363
    1DIPC   NC323977   3.554  15.398   2.553  0.0666 -0.0960 -0.2077
    1DIPC   PO423978   3.258  15.097   2.556  0.3395 -0.1368  0.0601
    1DIPC   GL123979   3.249  14.900   2.958 -0.0170 -0.0547  0.2137
    1DIPC   GL223980   3.023  15.094   3.203  0.2645  0.0596  0.0315
    1DIPC   C1A23981   3.377  14.644   3.295  0.0958 -0.1363  0.2115
    1DIPC   D2A23982   3.508  14.645   3.712 -0.3572 -0.1043  0.1729
    1DIPC   D3A23983   3.427  14.229   3.678 -0.0312  0.1795 -0.6114
    1DIPC   C4A23984   3.244  14.131   3.190  0.0553 -0.1647 -0.2743
    1DIPC   C1B23985   3.002  15.241   3.563  0.0060 -0.0326 -0.0601
    1DIPC   D2B23986   3.090  15.259   3.928 -0.0049 -0.1917  0.4146
    1DIPC   D3B23987   2.887  15.654   4.052 -0.1573  0.0596 -0.0318
    1DIPC   C4B23988   2.825  16.126   3.913  0.2064 -0.0867  0.0792
    1DIPC   NC323989   5.679  24.309   2.123  0.0082  0.0442  0.0243
    1DIPC   PO423990   5.713  24.272   2.600 -0.0113  0.1225  0.3192
    1DIPC   GL123991   5.854  24.511   2.978 -0.2142  0.0477 -0.0985
    1DIPC   GL223992   5.989  24.239   3.149 -0.0317 -0.1350  0.0275
    1DIPC   C1A23993   6.220  24.691   3.348  0.1145  0.2689 -0.1317
    1DIPC   D2A23994   6.583  24.671   3.621 -0.2621 -0.2274  0.0577
    1DIPC   D3A23995   6.675  24.497   4.134  0.1549  0.0782  0.1923
    1DIPC   C4A23996   6.422  24.575   4.526 -0.1623  0.0891  0.2476
    1DIPC   C1B23997   5.765  24.422   3.481 -0.2424  0.1830  0.1729
    1DIPC   D2B23998   5.432  24.295   3.739 -0.0155 -0.1043 -0.1069
    1DIPC   D3B23999   5.471  24.552   4.141 -0.2909 -0.1492 -0.0772
    1DIPC   C4B24000   5.087  24.903   4.108 -0.1983  0.1476  0.0819
    1DIPC   NC324001  21.735  25.332   2.859  0.1258 -0.1811  0.2625
    1DIPC   PO424002  22.034  25.304   3.242 -0.1910 -0.0409  0.0176
    1DIPC   GL124003  21.920  25.255   3.702  0.2946 -0.1330 -0.0596
    1DIPC   GL224004  22.049  25.002   3.957  0.2833 -0.0604  0.0927
    1DIPC   C1A24005  21.743  25.419   4.103 -0.0516  0.2354  0.0452
    1DIPC   D2A24006  21.541  25.658   4.460  0.2262  0.0589  0.0534
    1DIPC   D3A24007  21.980  25.571   4.496 -0.0890  0.2571  0.2380
    1DIPC   C4A24008  22.226  25.689   4.847  0.0211  0.1728  0.1665
    1DIPC   C1B24009  22.141  24.975   4.449  0.0273 -0.1696 -0.0613
    1DIPC   D2B24010  22.372  24.781   4.847 -0.2807 -0.1886  0.1996
    1DIPC   D3B24011  22.476  24.481   5.064  0.0845  0.1181 -0.0090
    1DIPC   C4B24012  22.479  24.083   5.243  0.0864 -0.3608 -0.0602
    1DIPC   NC324013  19.013   3.602   2.805 -0.1115  0.0775 -0.2410
    1DIPC   PO424014  18.688   3.537   3.143 -0.0732 -0.3154 -0.1850
    1DIPC   GL124015  18.752   3.678   3.631 -0.3640 -0.0273 -0.2126
    1DIPC   GL224016  19.087   3.625   3.719  0.0006  0.0925 -0.1469
    1DIPC   C1A24017  18.487   3.788   4.031  0.3450  0.0114  0.0002
    1DIPC   D2A24018  18.135   3.799   4.302  0.0729  0.0187 -0.1159
    1DIPC   D3A24019  18.164   3.937   4.798 -0.0505 -0.0148  0.0106
    1DIPC   C4A24020  18.080   4.324   4.983  0.2000 -0.0621 -0.0000
    1DIPC   C1B24021  18.908   3.543   4.129  0.0357  0.0136 -0.1935
    1DIPC   D2B24022  18.685   3.595   4.462 -0.1164 -0.2869 -0.0987
    1DIPC   D3B24023  19.064   3.400   4.629  0.0240 -0.0528  0.0543
    1DIPC   C4B24024  19.269   3.027   4.437  0.2075  0.2106 -0.2654
    1DIPC   NC324025   6.815  26.474   2.729 -0.0462 -0.1780 -0.2486
    1DIPC   PO424026   6.737  26.065   3.026  0.1898  0.4295  0.1037
    1DIPC   GL124027   6.548  25.828   3.324 -0.0970 -0.1666 -0.1444
    1DIPC   GL224028   6.250  25.698   3.315  0.3887 -0.1156  0.0132
    1DIPC   C1A24029   6.541  25.476   3.735 -0.1961 -0.1101 -0.1118
    1DIPC   D2A24030   6.903  25.319   3.983  0.2755  0.1075 -0.1871
    1DIPC   D3A24031   7.280  25.158   4.154  0.0819  0.0187 -0.2723
    1DIPC   C4A24032   7.436  24.930   4.469  0.0824 -0.2359 -0.0908
    1DIPC   C1B24033   5.953  25.478   3.642  0.0953  0.3217  0.1629
    1DIPC   D2B24034   5.841  25.117   3.913 -0.3704  0.1783  0.0851
    1DIPC   D3B24035   5.834  25.441   4.213 -0.1861  0.0060 -0.1146
    1DIPC   C4B24036   5.664  25.478   4.627 -0.0112 -0.0595 -0.3278
    1DIPC   NC324037   8.772   5.920   3.192 -0.0850  0.2488 -0.2411
    1DIPC   PO424038   9.086   6.028   3.494  0.0817  0.0489 -0.0233
    1DIPC   GL124039   9.055   6.165   3.844  0.3149 -0.2915 -0.0511
    1DIPC   GL224040   8.793   6.429   3.976  0.3078 -0.0919  0.2745
    1DIPC   C1A24041   9.164   6.133   4.217 -0.0287  0.3368 -0.0992
    1DIPC   D2A24042   9.165   5.915   4.682 -0.3028 -0.1875  0.0487
    1DIPC   D3A24043   8.949   6.059   4.959  0.3026  0.0252 -0.1480
    1DIPC   C4A24044   9.176   6.442   5.152  0.1793  0.0531  0.1417
    1DIPC   C1B24045   8.395   6.339   4.295  0.0204  0.0270 -0.1835
    1DIPC   D2B24046   8.109   5.957   4.255 -0.0027  0.2586 -0.3208
    1DIPC   D3B24047   8.109   5.979   4.686  0.1216 -0.0821  0.1309
    1DIPC   C4B24048   8.225   6.298   4.938 -0.3474 -0.0020  0.2371
    1DIPC   NC324049   9.759   0.284   3.934  0.0624  0.0806  0.2355
    1DIPC   PO424050  10.273   0.294   3.953  0.1872 -0.2914 -0.0173
    1DIPC   GL124051  10.410   0.551   4.250 -0.0969 -0.2564 -0.1343
    1DIPC   GL224052  10.674   0.437   4.459 -0.0883 -0.2098 -0.5099
    1DIPC   C1A24053  10.312   0.713   4.640  0.2091 -0.3345  0.1481
    1DIPC   D2A24054  10.261   0.575   4.974 -0.3120  0.1649 -0.3196
    1DIPC   D3A24055   9.793   0.585   4.992  0.0025 -0.0490  0.2822
    1DIPC   C4A24056   9.556   0.418   5.389  0.3045  0.1789  0.0617
    1DIPC   C1B24057  10.435   0.074   4.566 -0.2232  0.2291  0.4195
    1DIPC   D2B24058  10.102  -0.192   4.777 -0.2104  0.1108  0.0314
    1DIPC   D3B24059  10.310   0.050   5.005  0.0979 -0.3916 -0.0768
    1DIPC   C4B24060  10.079   0.306   5.337 -0.0539 -0.2239 -0.4181
    1DIPC   NC324061   9.351   0.561   3.312  0.1041 -0.0940  0.0265
    1DIPC   PO424062   9.104   0.960   3.399  0.2241 -0.0687  0.1228
    1DIPC   GL124063   9.248   1.004   3.864  0.0322 -0.0174 -0.1704
    1DIPC   GL224064   9.087   1.279   3.950  0.2187  0.0192 -0.1835
    1DIPC   C1A24065   9.336   1.142   4.318  0.2294 -0.0194 -0.1990
    1DIPC   D2A24066   9.439   1.479   4.509 -0.1402 -0.3222  0.1048
    1DIPC   D3A24067   9.158   1.329   4.934  0.0778  0.0734 -0.1889
    1DIPC   C4A24068   8.865   1.089   4.942 -0.2190 -0.2182  0.0079
    1DIPC   C1B24069   9.343   1.628   4.095  0.0643  0.2947 -0.0376
    1DIPC   D2B24070   9.637   1.967   4.018  0.2425 -0.1011 -0.1592
    1DIPC   D3B24071   9.213   1.993   3.847  0.1004 -0.0473 -0.1326
    1DIPC   C4B24072   8.887   1.924   4.079 -0.1429  0.1092  0.1377
    1DIPC   NC324073   6.985   2.111   2.831  0.0664  0.0064 -0.3539
    1DIPC   PO424074   7.273   1.826   3.029 -0.2127 -0.2380  0.3378
    1DIPC   GL124075   7.235   1.622   3.467  0.2585 -0.0019 -0.1683
    1DIPC   GL224076   7.509   1.448   3.548 -0.0028  0.3483  0.0763
    1DIPC   C1A24077   7.100   1.599   3.946 -0.1911  0.2494 -0.1650
    1DIPC   D2A24078   6.959   1.593   4.421  0.0040  0.1170 -0.1164
    1DIPC   D3A24079   6.987   1.777   4.911  0.2405 -0.4243  0.0557
    1DIPC   C4A24080   6.523   2.032   5.136 -0.3403  0.0416 -0.1942
    1DIPC   C1B24081   7.589   1.420   3.976  0.1967 -0.0236  0.1429
    1DIPC   D2B24082   7.538   1.461   4.370  0.0572  0.3533 -0.1692
    1DIPC   D3B24083   7.961   1.593   4.309  0.1191 -0.2081  0.1279
    1DIPC   C4B24084   8.130   1.717   4.672  0.3282 -0.2060  0.1095
    1DIPC   NC324085   0.268  10.683   2.338  0.2994 -0.0291 -0.0263
    1DIPC   PO424086   0.179  10.348   2.665  0.0905 -0.5302  0.1963
    1DIPC   GL124087   0.253  10.190   3.129 -0.0709  0.0387 -0.0907
    1DIPC   GL224088   0.556  10.407   3.259 -0.0654  0.1587  0.1622
    1DIPC   C1A24089   0.065  10.292   3.422  0.0964 -0.1321 -0.0926
    1DIPC   D2A24090  -0.244  10.478   3.503  0.3456 -0.2295 -0.0426
    1DIPC   D3A24091  -0.310  10.260   3.790  0.1025  0.3037 -0.0479
    1DIPC   C4A24092  -0.486  10.477   4.146 -0.2236 -0.2623 -0.2088
    1DIPC   C1B24093   0.541  10.252   3.703 -0.2361  0.1698  0.4273
    1DIPC   D2B24094   0.583   9.994   4.046 -0.0633  0.1115  0.1005
    1DIPC   D3B24095   0.623   9.514   4.068 -0.0585 -0.0477  0.1826
    1DIPC   C4B24096   0.625   9.396   4.427  0.0813 -0.0756  0.1331
    1DIPC   NC324097  21.466   9.523   3.047  0.4376  0.1702  0.2549
    1DIPC   PO424098  21.106   9.450   3.097 -0.0949 -0.2472  0.0875
    1DIPC   GL124099  21.022   9.532   3.528 -0.1616  0.1733  0.1261
    1DIPC   GL224100  20.823   9.642   3.511 -0.0516  0.1666 -0.0761
    1DIPC   C1A24101  21.129   9.771   3.893 -0.0817 -0.2319  0.0777
    1DIPC   D2A24102  21.465   9.896   4.067 -0.3578 -0.1266  0.2880
    1DIPC   D3A24103  21.257  10.102   4.240  0.1932 -0.0314 -0.0168
    1DIPC   C4A24104  21.174  10.023   4.692 -0.1195 -0.0818  0.2041
    1DIPC   C1B24105  20.635   9.531   3.878  0.0702  0.2510 -0.2427
    1DIPC   D2B24106  20.387   9.503   4.339  0.0427 -0.1234  0.1638
    1DIPC   D3B24107  20.546   9.912   4.128  0.2373  0.1925 -0.0638
    1DIPC   C4B24108  20.473   9.939   3.719  0.1818 -0.1380 -0.1791
    1DIPC   NC324109   3.271  21.206   2.512  0.0116  0.0805 -0.0271
    1DIPC   PO424110   3.505  20.831   2.675  0.0953 -0.1324 -0.0402
    1DIPC   GL124111   3.398  20.613   3.042 -0.1811  0.2285  0.0799
    1DIPC   GL224112   3.235  20.870   3.222 -0.1299  0.1011  0.3417
    1DIPC   C1A24113   3.307  20.246   3.235  0.0639  0.1510  0.0331
    1DIPC   D2A24114   3.563  19.972   3.533  0.1243 -0.2335  0.0377
    1DIPC   D3A24115   3.251  19.758   3.864  0.3173 -0.0244  0.1193
    1DIPC   C4A24116   2.835  20.023   4.187 -0.2083 -0.0689 -0.0768
    1DIPC   C1B24117   3.095  21.077   3.510  0.0033 -0.1006  0.1363
    1DIPC   D2B24118   2.811  20.952   3.811 -0.0733  0.1599  0.1821
    1DIPC   D3B24119   3.105  20.884   4.050  0.1040 -0.0058 -0.0095
    1DIPC   C4B24120   3.430  20.726   4.317 -0.0231  0.1366 -0.0408
    1DIPC   NC324121   2.502   6.572   2.636  0.3314 -0.1629 -0.1775
    1DIPC   PO424122   2.159   6.363   2.638 -0.0214 -0.1112 -0.0673
    1DIPC   GL124123   1.865   6.112   2.933  0.3878  0.2370  0.1350
    1DIPC   GL224124   1.725   5.811   2.915  0.0366  0.1761 -0.0533
    1DIPC   C1A24125   1.769   6.160   3.368  0.1086 -0.1040  0.0318
    1DIPC   D2A24126   1.821   6.123   3.876 -0.1873  0.0301 -0.0614
    1DIPC   D3A24127   2.099   5.688   3.970  0.2125 -0.1833  0.2622
    1DIPC   C4A24128   2.049   5.257   3.800  0.2440 -0.1024 -0.0896
    1DIPC   C1B24129   1.317   5.569   3.022  0.4962  0.0681  0.0030
    1DIPC   D2B24130   1.108   5.148   3.171  0.3218 -0.0693  0.2518
    1DIPC   D3B24131   0.794   5.485   3.360  0.0155  0.0048  0.1754
    1DIPC   C4B24132   1.006   5.770   3.619 -0.0810  0.0631 -0.0428
    1DIPC   NC324133  16.253   9.131   2.898 -0.2284  0.1414  0.1630
    1DIPC   PO424134  16.630   9.068   3.100 -0.1112 -0.1254  0.1826
    1DIPC   GL124135  16.693   9.141   3.553 -0.0018  0.1816  0.0215
    1DIPC   GL224136  16.452   9.000   3.735 -0.1318 -0.1347  0.0123
    1DIPC   C1A24137  17.044   9.180   3.839  0.1788  0.2055  0.3120
    1DIPC   D2A24138  17.519   9.226   3.696  0.0198 -0.0754  0.0468
    1DIPC   D3A24139  17.459   9.126   4.126  0.1167 -0.1770  0.0562
    1DIPC   C4A24140  17.044   9.274   4.329  0.0399  0.0645 -0.1011
    1DIPC   C1B24141  16.631   9.311   4.001 -0.1718  0.2589 -0.0612
    1DIPC   D2B24142  16.791   9.723   3.858 -0.0625  0.2195  0.1022
    1DIPC   D3B24143  17.142   9.661   3.977 -0.0560  0.2035  0.2881
    1DIPC   C4B24144  17.423   9.666   4.331  0.2682  0.2260  0.0324
    1DIPC   NC324145  26.912  25.539   2.988  0.1640  0.1958  0.1833
    1DIPC   PO424146  26.591  25.314   3.177  0.3621  0.1416 -0.0209
    1DIPC   GL124147  26.490  25.292   3.579 -0.0249 -0.3247 -0.2548
    1DIPC   GL224148  26.475  25.581   3.630  0.1181 -0.0548  0.2592
    1DIPC   C1A24149  26.399  25.209   4.023  0.0335  0.0320 -0.0110
    1DIPC   D2A24150  26.247  25.315   4.405  0.1115  0.4151  0.1744
    1DIPC   D3A24151  26.436  25.397   4.827 -0.1003 -0.0214 -0.0566
    1DIPC   C4A24152  26.152  25.402   5.122  0.1485 -0.0951  0.0969
    1DIPC   C1B24153  26.922  25.697   3.741  0.0585  0.0118 -0.0914
    1DIPC   D2B24154  26.967  26.053   3.981 -0.2465 -0.2729 -0.0077
    1DIPC   D3B24155  27.143  26.312   3.715 -0.0112 -0.1138 -0.2750
    1DIPC   C4B24156  27.591  26.331   3.547  0.3446 -0.2522  0.1918
    1DIPC   NC324157   1.921  27.316   2.940  0.2480 -0.3851 -0.0116
    1DIPC   PO424158   1.799  26.860   3.000 -0.4834  0.0953  0.1250
    1DIPC   GL124159   1.867  26.930   3.460 -0.0904 -0.2353 -0.1543
    1DIPC   GL224160   2.211  26.913   3.646  0.3604  0.1202 -0.1577
    1DIPC   C1A24161   1.942  27.317   3.685  0.0735 -0.2908 -0.0766
    1DIPC   D2A24162   2.039  27.558   4.010  0.0923 -0.0533 -0.0874
    1DIPC   D3A24163   1.830  27.178   4.183  0.5042 -0.3375  0.0172
    1DIPC   C4A24164   1.622  27.152   4.573 -0.0029 -0.0194 -0.1421
    1DIPC   C1B24165   2.176  26.793   4.130 -0.2241  0.0199 -0.1423
    1DIPC   D2B24166   2.052  26.661   4.546 -0.1820  0.0846  0.0270
    1DIPC   D3B24167   1.710  26.684   4.453  0.1705  0.2885  0.0879
    1DIPC   C4B24168   1.476  26.323   4.240 -0.3152  0.1217 -0.1743
    1DIPC   NC324169  12.046   7.573   3.405  0.1965 -0.1417  0.1340
    1DIPC   PO424170  12.355   7.863   3.515 -0.2179 -0.1900  0.0421
    1DIPC   GL124171  12.356   7.591   3.807  0.1732 -0.4347  0.1201
    1DIPC   GL224172  11.995   7.729   3.936 -0.0088  0.0106 -0.1087
    1DIPC   C1A24173  12.264   7.156   3.952  0.3438 -0.1047  0.1791
    1DIPC   D2A24174  11.846   6.983   3.831  0.4144 -0.1449 -0.0246
    1DIPC   D3A24175  11.594   7.272   4.100 -0.2243 -0.3748 -0.0320
    1DIPC   C4A24176  11.608   7.374   4.527  0.1992  0.0406 -0.1133
    1DIPC   C1B24177  12.032   7.466   4.271 -0.1662  0.0807 -0.0904
    1DIPC   D2B24178  12.059   7.007   4.402  0.2138 -0.0614  0.1579
    1DIPC   D3B24179  11.760   6.808   4.264  0.0102 -0.0412 -0.0220
    1DIPC   C4B24180  12.029   6.541   4.064  0.1493 -0.1115 -0.0868
    1DIPC   NC324181  27.848   8.937   2.783 -0.1459  0.2136  0.1252
    1DIPC   PO424182  27.772   8.511   2.810  0.0744  0.1399 -0.2139
    1DIPC   GL124183  27.489   8.387   3.101 -0.0517 -0.4453  0.1369
    1DIPC   GL224184  27.489   8.071   3.110 -0.0659 -0.2259 -0.2803
    1DIPC   C1A24185  27.309   8.344   3.553 -0.0050  0.0105 -0.1050
    1DIPC   D2A24186  27.177   8.540   3.988 -0.1670 -0.0974 -0.0950
    1DIPC   D3A24187  27.118   8.516   4.430 -0.0019  0.0963 -0.1247
    1DIPC   C4A24188  26.905   8.179   4.491 -0.0419  0.2326 -0.0082
    1DIPC   C1B24189  27.226   7.652   3.086 -0.2890  0.1661 -0.1042
    1DIPC   D2B24190  27.160   7.211   3.235  0.2089 -0.0267  0.1479
    1DIPC   D3B24191  27.172   7.291   3.628 -0.2500  0.1542  0.1586
    1DIPC   C4B24192  26.848   7.401   3.919 -0.2392 -0.3247  0.4010
    1DIPC   NC324193   2.569  16.644   2.117  0.1618 -0.2393  0.0608
    1DIPC   PO424194   2.372  17.025   2.381  0.5210  0.2476 -0.2715
    1DIPC   GL124195   2.482  16.767   2.774 -0.0142 -0.2019  0.3076
    1DIPC   GL224196   2.252  16.835   3.106  0.0064 -0.1823  0.0409
    1DIPC   C1A24197   2.436  16.387   3.034  0.0340  0.1390 -0.0821
    1DIPC   D2A24198   2.587  16.270   3.462 -0.2026 -0.3960  0.1218
    1DIPC   D3A24199   2.878  16.608   3.621  0.1462 -0.0244  0.1781
    1DIPC   C4A24200   3.167  16.677   3.988  0.0472 -0.0230  0.0156
    1DIPC   C1B24201   2.326  16.648   3.477 -0.0774 -0.2377  0.3847
    1DIPC   D2B24202   2.229  16.520   3.869 -0.1556 -0.2087 -0.2220
    1DIPC   D3B24203   2.590  16.579   4.062 -0.0534  0.2889 -0.0140
    1DIPC   C4B24204   2.795  16.896   4.095  0.2114  0.1831  0.0626
    1DIPC   NC324205  20.883   2.462   2.933  0.0712 -0.3175 -0.2855
    1DIPC   PO424206  20.849   2.980   2.967 -0.0148  0.3745  0.4267
    1DIPC   GL124207  21.154   3.026   3.201 -0.1989  0.1972 -0.2792
    1DIPC   GL224208  21.212   2.950   3.575  0.2763 -0.2513  0.2234
    1DIPC   C1A24209  21.324   3.400   3.411 -0.3248 -0.0281 -0.0797
    1DIPC   D2A24210  21.693   3.637   3.347 -0.1271  0.1076 -0.0227
    1DIPC   D3A24211  21.761   3.628   3.776 -0.2082 -0.2041 -0.0681
    1DIPC   C4A24212  21.679   4.030   3.945  0.2354  0.0208 -0.2406
    1DIPC   C1B24213  21.327   2.973   3.941  0.2056  0.2259  0.1120
    1DIPC   D2B24214  21.538   2.757   4.191  0.0520 -0.3969  0.0888
    1DIPC   D3B24215  21.557   3.056   4.574  0.1904  0.1363  0.1222
    1DIPC   C4B24216  22.022   3.269   4.454 -0.1714  0.1117  0.1066
    1DIPC   NC324217  28.495   2.756   2.877  0.2217 -0.0925 -0.0808
    1DIPC   PO424218  28.835   2.396   2.969  0.0497  0.0891  0.1254
    1DIPC   GL124219  28.876   2.318   3.328 -0.1608  0.0955  0.0438
    1DIPC   GL224220  28.960   2.083   3.445  0.0141  0.0529  0.5561
    1DIPC   C1A24221  28.541   2.419   3.728 -0.1695  0.0895 -0.0447
    1DIPC   D2A24222  28.140   2.469   3.912 -0.2729 -0.0079 -0.0045
    1DIPC   D3A24223  28.452   2.680   4.189 -0.0223 -0.2912  0.0544
    1DIPC   C4A24224  28.540   2.427   4.621  0.0312 -0.2160 -0.1464
    1DIPC   C1B24225  28.999   2.184   3.875  0.0787 -0.1237  0.0606
    1DIPC   D2B24226  28.783   2.342   4.179  0.1120 -0.1073 -0.1128
    1DIPC   D3B24227  28.971   2.700   4.168  0.4336  0.0287 -0.0178
    1DIPC   C4B24228  29.096   2.694   3.718 -0.2462  0.1572  0.0110
    1DIPC   NC324229  22.258  28.051   3.021  0.0038  0.0856  0.0784
    1DIPC   PO424230  21.902  27.939   3.006 -0.1319  0.2482  0.1090
    1DIPC   GL124231  21.874  28.001   3.438  0.1944  0.0637 -0.2370
    1DIPC   GL224232  22.116  27.784   3.599  0.2326 -0.2742 -0.3628
    1DIPC   C1A24233  21.759  28.092   3.876 -0.0486  0.0382  0.0693
    1DIPC   D2A24234  21.975  28.136   4.281 -0.1235 -0.3904 -0.0968
    1DIPC   D3A24235  22.315  28.398   4.117 -0.3469 -0.3212  0.0650
    1DIPC   C4A24236  22.594  28.661   4.322  0.1258  0.1311  0.0231
    1DIPC   C1B24237  22.265  27.840   4.025 -0.0948 -0.1232 -0.0220
    1DIPC   D2B24238  22.333  27.665   4.329  0.0718 -0.2414  0.1229
    1DIPC   D3B24239  21.978  27.679   4.632  0.1189  0.1750  0.0476
    1DIPC   C4B24240  21.921  27.591   4.998  0.1980  0.0133  0.1642
    1DIPC   NC324241   8.256   6.565   3.292 -0.0594  0.1618 -0.1835
    1DIPC   PO424242   8.622   6.244   3.513 -0.2219 -0.2891  0.3632
    1DIPC   GL124243   8.304   6.385   3.822 -0.3378 -0.1709 -0.0479
    1DIPC   GL224244   8.193   6.723   3.889 -0.1743 -0.1407  0.1754
    1DIPC   C1A24245   7.840   6.239   3.950  0.0907 -0.1310 -0.4065
    1DIPC   D2A24246   7.422   6.096   4.128  0.0182  0.0993 -0.2052
    1DIPC   D3A24247   7.606   5.760   3.976  0.3338 -0.2470  0.0938
    1DIPC   C4A24248   7.738   5.330   4.148  0.0454  0.1878 -0.0247
    1DIPC   C1B24249   8.074   6.743   4.250 -0.2082 -0.0476 -0.2609
    1DIPC   D2B24250   7.950   6.500   4.556  0.0903  0.2686 -0.1220
    1DIPC   D3B24251   7.611   6.985   4.544  0.1810 -0.1442 -0.1589
    1DIPC   C4B24252   7.177   6.947   4.500  0.1178 -0.2894 -0.2406
    1DIPC   NC324253  23.240  27.589   2.826 -0.0459 -0.0251 -0.0021
    1DIPC   PO424254  23.227  27.912   3.067 -0.2439 -0.0376  0.2262
    1DIPC   GL124255  23.456  27.984   3.434 -0.0343 -0.1060 -0.1740
    1DIPC   GL224256  23.160  28.007   3.705 -0.2777  0.2361  0.0467
    1DIPC   C1A24257  23.711  28.040   3.858 -0.2632  0.1305  0.0233
    1DIPC   D2A24258  23.788  27.916   4.339 -0.0224 -0.1739 -0.0232
    1DIPC   D3A24259  24.168  27.994   4.457 -0.0684 -0.0675  0.2040
    1DIPC   C4A24260  24.262  28.255   4.991 -0.1143 -0.0091 -0.1492
    1DIPC   C1B24261  23.246  27.858   4.176  0.1203  0.1143  0.0993
    1DIPC   D2B24262  23.190  27.926   4.555 -0.1896 -0.1722 -0.0110
    1DIPC   D3B24263  23.049  28.313   4.723 -0.0378  0.1997  0.0167
    1DIPC   C4B24264  23.033  28.673   4.410  0.3005 -0.0159  0.1698
    1DIPC   NC324265  22.582   9.413   2.965  0.0884 -0.2996  0.1244
    1DIPC   PO424266  22.330   9.149   3.122  0.0570  0.1249 -0.0493
    1DIPC   GL124267  21.958   9.137   3.394 -0.1223 -0.0657  0.1686
    1DIPC   GL224268  21.878   8.834   3.606 -0.1399  0.1880  0.1036
    1DIPC   C1A24269  21.919   9.383   3.824  0.2128 -0.2311  0.3557
    1DIPC   D2A24270  21.798   9.579   4.134 -0.1412 -0.0077 -0.4586
    1DIPC   D3A24271  22.210   9.650   4.396 -0.0645 -0.1446  0.1444
    1DIPC   C4A24272  22.323   9.937   4.760  0.0333  0.1083  0.3500
    1DIPC   C1B24273  21.816   8.912   3.884  0.0820 -0.2129  0.1304
    1DIPC   D2B24274  21.640   9.114   4.303  0.0468  0.2407 -0.3746
    1DIPC   D3B24275  21.598   9.123   4.717 -0.0880 -0.0473  0.1794
    1DIPC   C4B24276  21.919   9.093   5.002 -0.2028  0.0098  0.1586
    1DIPC   NC324277   7.527  26.993   3.316  0.1915  0.1326  0.1236
    1DIPC   PO424278   7.423  27.445   3.341 -0.1245  0.3759 -0.1237
    1DIPC   GL124279   7.287  27.199   3.717 -0.0338 -0.0283 -0.3333
    1DIPC   GL224280   7.541  26.928   3.799 -0.2177  0.0756  0.0927
    1DIPC   C1A24281   7.017  27.139   4.168  0.1384 -0.5404  0.0888
    1DIPC   D2A24282   6.664  27.162   4.418  0.2738  0.1311 -0.0733
    1DIPC   D3A24283   6.579  27.431   4.794  0.2342  0.2613 -0.0599
    1DIPC   C4A24284   6.907  27.552   5.102  0.1145  0.1535 -0.0932
    1DIPC   C1B24285   7.546  26.608   4.122  0.0503  0.0808  0.0963
    1DIPC   D2B24286   7.568  26.427   4.496  0.0549 -0.0729  0.0143
    1DIPC   D3B24287   7.972  26.429   4.247  0.0720 -0.0329  0.3162
    1DIPC   C4B24288   8.251  26.038   4.388 -0.0520 -0.0028  0.1597
    1DIPC   NC324289   2.285  11.900   2.334  0.1641 -0.0420 -0.0670
    1DIPC   PO424290   2.134  11.973   2.784 -0.0608 -0.3714  0.3371
    1DIPC   GL124291   2.269  11.900   3.171  0.0440 -0.0498  0.0144
    1DIPC   GL224292   2.078  12.104   3.339  0.0492  0.2246 -0.3373
    1DIPC   C1A24293   2.328  11.800   3.657  0.2098 -0.0969 -0.0840
    1DIPC   D2A24294   2.470  11.783   4.071 -0.1476 -0.4653 -0.1359
    1DIPC   D3A24295   2.044  11.899   4.046  0.2971 -0.0362 -0.1716
    1DIPC   C4A24296   1.824  12.198   4.218  0.0716  0.3694 -0.0076
    1DIPC   C1B24297   1.732  11.878   3.524 -0.1849 -0.1353 -0.0507
    1DIPC   D2B24298   1.504  11.822   3.922 -0.2127 -0.1227  0.2381
    1DIPC   D3B24299   1.180  11.593   3.794 -0.2268  0.1092  0.0703
    1DIPC   C4B24300   1.261  11.229   3.725 -0.4538  0.0726  0.2018
    1DIPC   NC324301   2.479   9.481   2.572 -0.0741  0.0065 -0.2086
    1DIPC   PO424302   2.820   9.169   2.533  0.3765  0.1273 -0.1646
    1DIPC   GL124303   3.003   8.829   2.938  0.0657  0.1222  0.1272
    1DIPC   GL224304   3.184   9.020   3.133 -0.1595 -0.0960 -0.1157
    1DIPC   C1A24305   3.030   8.637   3.345 -0.0250 -0.1447 -0.2956
    1DIPC   D2A24306   2.649   8.280   3.390 -0.1682  0.1976 -0.3150
    1DIPC   D3A24307   2.760   8.004   3.811 -0.0866 -0.2728 -0.0400
    1DIPC   C4A24308   2.770   7.597   3.836 -0.1039 -0.1472  0.1435
    1DIPC   C1B24309   3.252   9.050   3.601 -0.2102  0.1179 -0.1476
    1DIPC   D2B24310   3.381   8.976   3.942 -0.2252 -0.1905  0.0066
    1DIPC   D3B24311   3.165   8.768   4.179 -0.0418  0.3377  0.0596
    1DIPC   C4B24312   3.121   8.326   4.220 -0.0503  0.1273  0.1989
    1DIPC   NC324313   2.858   0.673   3.252  0.2557 -0.0146  0.1722
    1DIPC   PO424314   3.223   0.461   3.290  0.1547 -0.1652 -0.0504
    1DIPC   GL124315   3.240   0.502   3.659 -0.1939  0.1466 -0.0709
    1DIPC   GL224316   3.040   0.726   3.745 -0.1200 -0.1474  0.0799
    1DIPC   C1A24317   3.498   0.395   3.962  0.2074  0.1008 -0.2649
    1DIPC   D2A24318   3.544   0.217   4.414 -0.0175  0.3687  0.0673
    1DIPC   D3A24319   4.015   0.260   4.441 -0.3093  0.1203 -0.0274
    1DIPC   C4A24320   4.445   0.459   4.165  0.2281  0.2247  0.1847
    1DIPC   C1B24321   2.651   0.542   3.871 -0.0473  0.2905 -0.0841
    1DIPC   D2B24322   2.414   0.665   4.212 -0.0537 -0.0492 -0.3050
    1DIPC   D3B24323   2.637   1.009   4.315 -0.0781  0.0517  0.0473
    1DIPC   C4B24324   2.426   1.179   4.610  0.0366  0.0528  0.0127
    1DIPC   NC324325   1.763  11.151   2.360  0.2019  0.2002  0.2496
    1DIPC   PO424326   1.418  11.464   2.482  0.3555 -0.1686  0.2985
    1DIPC   GL124327   1.488  11.432   2.899  0.0891 -0.1972 -0.0458
    1DIPC   GL224328   1.745  11.633   3.089 -0.1091  0.1755 -0.1751
    1DIPC   C1A24329   1.370  11.197   3.242  0.0612  0.0305 -0.1320
    1DIPC   D2A24330   0.985  10.994   3.352 -0.0517  0.1048  0.0853
    1DIPC   D3A24331   0.823  11.321   3.525 -0.2403 -0.1215 -0.3946
    1DIPC   C4A24332   0.422  11.431   3.577  0.3482  0.0450  0.0545
    1DIPC   C1B24333   1.804  11.367   3.561 -0.3634  0.0528  0.1362
    1DIPC   D2B24334   2.040  11.384   4.059 -0.0413 -0.0207  0.3875
    1DIPC   D3B24335   1.732  11.579   4.337 -0.1454  0.0051  0.2378
    1DIPC   C4B24336   1.598  11.933   4.651  0.2812  0.0360  0.5738
    1DIPC   NC324337   7.359   2.587   2.766  0.1403 -0.0039 -0.0476
    1DIPC   PO424338   7.113   2.536   3.079  0.2719  0.2653  0.1475
    1DIPC   GL124339   7.143   2.690   3.473  0.0647 -0.0908 -0.1968
    1DIPC   GL224340   6.885   2.436   3.669  0.1036 -0.1798 -0.3338
    1DIPC   C1A24341   7.004   2.832   3.903  0.0530 -0.0269 -0.0754
    1DIPC   D2A24342   6.776   2.615   4.268  0.0702 -0.0719  0.0342
    1DIPC   D3A24343   6.406   2.360   4.099  0.1691  0.0939 -0.2243
    1DIPC   C4A24344   6.461   2.165   3.714 -0.4708 -0.2510  0.4378
    1DIPC   C1B24345   6.990   2.172   4.001  0.2675  0.0882 -0.0311
    1DIPC   D2B24346   7.066   2.048   4.377  0.1172 -0.0480 -0.0456
    1DIPC   D3B24347   6.937   2.442   4.773 -0.0461 -0.1373 -0.0413
    1DIPC   C4B24348   7.368   2.725   4.787  0.0131  0.0611 -0.0936
    1DIPC   NC324349  29.155  15.411   2.353  0.3349  0.1954 -0.2252
    1DIPC   PO424350  28.768  15.717   2.182 -0.1483  0.1289  0.1086
    1DIPC   GL124351  28.787  15.698   2.679  0.0647 -0.0150 -0.0627
    1DIPC   GL224352  28.573  15.848   2.858 -0.0891  0.2359 -0.5583
    1DIPC   C1A24353  29.151  15.823   2.846  0.0970  0.1792  0.1122
    1DIPC   D2A24354  29.289  15.832   3.307  0.2280  0.1377 -0.1563
    1DIPC   D3A24355  29.405  15.718   3.735  0.3100 -0.0434 -0.1869
    1DIPC   C4A24356  29.341  15.170   3.941  0.0546 -0.0047 -0.2070
    1DIPC   C1B24357  28.789  15.787   3.218  0.2510  0.0927  0.0669
    1DIPC   D2B24358  28.781  15.871   3.671  0.0207 -0.2424  0.3711
    1DIPC   D3B24359  28.368  16.009   3.723  0.0040  0.3725 -0.2228
    1DIPC   C4B24360  28.125  15.778   3.805  0.0764 -0.0106 -0.2241
    1DIPC   NC324361   1.678   9.047   2.610  0.0170  0.2743 -0.0172
    1DIPC   PO424362   1.862   9.454   2.498 -0.0410  0.0758  0.2857
    1DIPC   GL124363   1.965   9.390   2.879  0.4811  0.2159  0.1642
    1DIPC   GL224364   1.684   9.417   3.126  0.3525 -0.0777 -0.0240
    1DIPC   C1A24365   2.166   9.074   3.080 -0.4101  0.1647 -0.0739
    1DIPC   D2A24366   2.494   8.825   3.323 -0.1644  0.1106 -0.1217
    1DIPC   D3A24367   2.759   9.131   3.476  0.0855 -0.2459 -0.2812
    1DIPC   C4A24368   2.784   9.123   3.963 -0.0615  0.3402  0.0778
    1DIPC   C1B24369   1.971   9.305   3.437  0.0958  0.0581  0.0164
    1DIPC   D2B24370   2.310   9.292   3.660  0.0506  0.0478 -0.1373
    1DIPC   D3B24371   2.043   9.632   3.781 -0.0210  0.1232  0.2967
    1DIPC   C4B24372   1.725   9.865   3.584  0.0413 -0.1169 -0.2001
    1DIPC   NC324373   3.324  12.867   2.584  0.1548  0.0723 -0.1549
    1DIPC   PO424374   2.933  12.599   2.692  0.2425  0.1667  0.1830
    1DIPC   GL124375   3.015  12.664   3.083  0.0845 -0.2297 -0.3200
    1DIPC   GL224376   2.976  13.038   3.283 -0.0549 -0.1821 -0.1647
    1DIPC   C1A24377   3.033  12.413   3.487 -0.1843  0.0330 -0.2684
    1DIPC   D2A24378   3.090  12.515   3.938  0.2522 -0.0385  0.0254
    1DIPC   D3A24379   2.912  12.240   4.217  0.1883  0.0364 -0.1344
    1DIPC   C4A24380   3.159  11.749   4.198 -0.1619  0.2771 -0.0366
    1DIPC   C1B24381   2.883  12.881   3.655 -0.1594  0.2560 -0.0603
    1DIPC   D2B24382   2.578  12.678   3.950  0.2644  0.0133 -0.1263
    1DIPC   D3B24383   2.139  12.774   4.121 -0.4060  0.1924 -0.0359
    1DIPC   C4B24384   2.132  13.112   4.337  0.1316  0.2157  0.0630
    1DIPC   NC324385  11.224  23.166   2.677  0.0040  0.1040 -0.0831
    1DIPC   PO424386  11.557  23.165   2.971 -0.1519 -0.1495 -0.2154
    1DIPC   GL124387  11.598  22.968   3.300  0.2095 -0.0706 -0.1655
    1DIPC   GL224388  11.452  23.218   3.466 -0.3448  0.1784  0.1079
    1DIPC   C1A24389  11.610  22.901   3.838  0.0619  0.0172  0.1180
    1DIPC   D2A24390  11.643  22.804   4.265  0.3266 -0.0874  0.1852
    1DIPC   D3A24391  11.205  22.918   4.370  0.0496  0.0604 -0.1898
    1DIPC   C4A24392  11.232  23.084   4.810 -0.1394  0.1979 -0.1159
    1DIPC   C1B24393  11.187  23.524   3.605  0.0147 -0.0505 -0.0717
    1DIPC   D2B24394  10.825  23.792   3.833  0.1714  0.0117 -0.2978
    1DIPC   D3B24395  10.564  23.717   4.270  0.0434  0.0912  0.2093
    1DIPC   C4B24396  10.149  23.608   4.246  0.0000 -0.1770  0.2868
    1DIPC   NC324397  28.046   5.458   2.689 -0.4318  0.3633 -0.3473
    1DIPC   PO424398  28.314   5.156   2.630  0.1118  0.0690 -0.0620
    1DIPC   GL124399  28.595   5.497   2.892 -0.3562 -0.0466  0.1492
    1DIPC   GL224400  28.505   5.795   2.884 -0.0406 -0.0173  0.0772
    1DIPC   C1A24401  28.762   5.721   3.276 -0.4536  0.0729 -0.0513
    1DIPC   D2A24402  28.997   5.683   3.710 -0.2097  0.0975 -0.1655
    1DIPC   D3A24403  29.082   5.351   3.453 -0.0238  0.1425 -0.2316
    1DIPC   C4A24404  29.423   5.116   3.287 -0.3202 -0.1504  0.0340
    1DIPC   C1B24405  28.217   5.971   3.283  0.2803  0.3366  0.2332
    1DIPC   D2B24406  27.951   5.688   3.487 -0.0155  0.3146  0.3986
    1DIPC   D3B24407  28.178   5.386   3.240 -0.0084 -0.2282  0.3125
    1DIPC   C4B24408  28.607   5.262   3.317 -0.3935  0.1913 -0.1161
    1DIPC   NC324409  14.238  27.722   4.211  0.0377 -0.0900 -0.1614
    1DIPC   PO424410  13.898  27.995   4.301 -0.3518 -0.0392  0.0708
    1DIPC   GL124411  13.654  27.859   4.791  0.1747  0.1015 -0.2544
    1DIPC   GL224412  13.665  27.525   4.798 -0.1166  0.0997 -0.2097
    1DIPC   C1A24413  13.834  28.137   5.136 -0.2248  0.0871  0.0335
    1DIPC   D2A24414  14.025  28.495   5.147  0.1758 -0.0933  0.1742
    1DIPC   D3A24415  13.763  28.889   5.177 -0.0962 -0.1608  0.0195
    1DIPC   C4A24416  13.364  29.006   5.353  0.1501  0.0686  0.1127
    1DIPC   C1B24417  13.695  27.164   5.021 -0.0638  0.0660 -0.1730
    1DIPC   D2B24418  14.019  26.876   5.085 -0.0422 -0.1769 -0.2110
    1DIPC   D3B24419  14.500  26.888   5.106  0.2364  0.1736  0.0016
    1DIPC   C4B24420  14.616  27.255   4.882 -0.2121  0.1474  0.2167
    1DIPC   NC324421  27.022  16.286   2.385 -0.2282 -0.2673 -0.1874
    1DIPC   PO424422  27.089  16.640   2.596 -0.0304 -0.3760  0.1516
    1DIPC   GL124423  26.986  16.478   2.913 -0.0839 -0.0304 -0.0275
    1DIPC   GL224424  26.989  16.142   2.967  0.1657 -0.1090 -0.0833
    1DIPC   C1A24425  26.911  16.504   3.432  0.1050 -0.0165 -0.1708
    1DIPC   D2A24426  26.549  16.383   3.616 -0.0438 -0.0186  0.1837
    1DIPC   D3A24427  26.497  16.579   4.056 -0.0346  0.0087 -0.0105
    1DIPC   C4A24428  26.768  17.075   4.243  0.0255  0.1156  0.1419
    1DIPC   C1B24429  27.046  15.974   3.352 -0.0071 -0.2096 -0.2498
    1DIPC   D2B24430  27.325  15.974   3.658 -0.2340  0.0624 -0.3894
    1DIPC   D3B24431  27.153  15.660   3.775 -0.2634 -0.0263  0.0457
    1DIPC   C4B24432  27.388  15.374   3.740 -0.0106 -0.2559 -0.1468
    1DIPC   NC324433  11.419   6.013   3.387 -0.2125 -0.2196  0.3921
    1DIPC   PO424434  11.139   6.343   3.222 -0.0764 -0.0259  0.0162
    1DIPC   GL124435  11.108   6.390   3.676 -0.2482 -0.0655  0.1168
    1DIPC   GL224436  10.855   6.649   3.784 -0.1774 -0.1352  0.1453
    1DIPC   C1A24437  10.878   6.107   4.023  0.4413  0.0256  0.2935
    1DIPC   D2A24438  11.063   5.786   4.252  0.1086  0.0684  0.1591
    1DIPC   D3A24439  11.072   6.151   4.567 -0.0286  0.1320  0.0644
    1DIPC   C4A24440  10.726   6.293   4.482  0.0638 -0.0402  0.0234
    1DIPC   C1B24441  10.821   6.715   4.231 -0.1320  0.1229  0.0319
    1DIPC   D2B24442  10.814   6.694   4.697 -0.1157  0.0170 -0.2472
    1DIPC   D3B24443  11.136   6.639   4.874 -0.1602 -0.0359  0.0065
    1DIPC   C4B24444  10.849   6.637   5.240 -0.2781  0.0117 -0.2223
    1DIPC   NC324445  21.231   7.180   2.815  0.0704  0.1604  0.1874
    1DIPC   PO424446  20.989   6.982   3.099 -0.1663 -0.1045  0.0385
    1DIPC   GL124447  20.883   6.815   3.483  0.2163 -0.3829  0.3091
    1DIPC   GL224448  20.879   6.604   3.723  0.1792  0.1436 -0.4333
    1DIPC   C1A24449  20.741   7.093   3.847 -0.1076 -0.0923  0.0565
    1DIPC   D2A24450  21.035   7.122   4.058 -0.1855 -0.1331 -0.1643
    1DIPC   D3A24451  21.078   7.432   4.362 -0.1791 -0.2955  0.0282
    1DIPC   C4A24452  20.843   7.317   4.764 -0.2913 -0.2273 -0.2292
    1DIPC   C1B24453  21.081   6.337   3.967 -0.0962  0.2673  0.1637
    1DIPC   D2B24454  21.442   6.235   4.125  0.0732  0.1756 -0.1465
    1DIPC   D3B24455  21.391   6.007   4.482 -0.1885  0.2980  0.0567
    1DIPC   C4B24456  21.037   5.805   4.548 -0.0241  0.0124  0.0563
    1DIPC   NC324457  25.502  21.758   2.648 -0.1530 -0.2289  0.1747
    1DIPC   PO424458  25.471  21.355   2.939 -0.0880 -0.1314  0.2444
    1DIPC   GL124459  25.737  21.617   3.276  0.2313  0.2836 -0.0770
    1DIPC   GL224460  25.967  21.443   3.627 -0.0432 -0.2635 -0.1294
    1DIPC   C1A24461  25.680  21.886   3.677  0.2632  0.1235 -0.0246
    1DIPC   D2A24462  25.899  22.094   4.025 -0.1041 -0.0088 -0.0985
    1DIPC   D3A24463  25.581  22.032   4.372 -0.0148 -0.2203 -0.2089
    1DIPC   C4A24464  25.286  22.235   4.677 -0.1186  0.2163 -0.4041
    1DIPC   C1B24465  26.252  21.276   3.996 -0.1206  0.2134  0.0262
    1DIPC   D2B24466  26.467  21.469   4.419  0.0108 -0.0538 -0.1270
    1DIPC   D3B24467  26.162  21.303   4.512 -0.3478  0.2745 -0.0160
    1DIPC   C4B24468  26.347  20.900   4.633 -0.3163  0.0829 -0.1219
    1DIPC   NC324469  19.268   1.478   2.811 -0.0986 -0.0786 -0.0077
    1DIPC   PO424470  19.202   1.876   3.134  0.1199 -0.0856  0.0005
    1DIPC   GL124471  19.298   2.060   3.602  0.1584  0.0100  0.1097
    1DIPC   GL224472  19.656   2.097   3.549 -0.0687  0.0380  0.1992
    1DIPC   C1A24473  19.360   1.827   3.947 -0.0101 -0.2928  0.0189
    1DIPC   D2A24474  19.124   1.523   4.123  0.1615  0.0975 -0.1460
    1DIPC   D3A24475  18.955   1.808   4.254 -0.1686  0.1418 -0.2444
    1DIPC   C4A24476  18.672   1.890   4.000 -0.2131  0.1647 -0.0160
    1DIPC   C1B24477  19.535   2.273   3.963 -0.0179 -0.1147 -0.5417
    1DIPC   D2B24478  19.460   2.090   4.393  0.1382 -0.1811  0.1247
    1DIPC   D3B24479  19.806   2.178   4.545  0.0630 -0.0995  0.3410
    1DIPC   C4B24480  19.846   2.545   4.883 -0.1996  0.2243  0.1232
    1DIPC   NC324481   7.567   8.810   3.028  0.0604 -0.0273 -0.0282
    1DIPC   PO424482   7.537   8.449   3.076 -0.2230  0.2050  0.0891
    1DIPC   GL124483   7.416   8.313   3.464 -0.3798  0.1001  0.1537
    1DIPC   GL224484   7.553   8.045   3.605 -0.1250  0.2939 -0.4379
    1DIPC   C1A24485   7.226   8.349   3.928 -0.2778  0.0739 -0.1065
    1DIPC   D2A24486   7.436   8.421   4.372 -0.1469 -0.0507  0.0716
    1DIPC   D3A24487   7.748   8.180   4.096 -0.3128  0.0734 -0.1877
    1DIPC   C4A24488   7.914   7.881   4.396 -0.2459  0.0159 -0.0312
    1DIPC   C1B24489   7.505   7.799   4.032  0.0671 -0.1076  0.3095
    1DIPC   D2B24490   7.435   7.950   4.464  0.0037 -0.0569 -0.1706
    1DIPC   D3B24491   7.401   8.266   4.788  0.0873 -0.0880 -0.0667
    1DIPC   C4B24492   7.507   8.749   4.736  0.1244  0.0202 -0.1014
    1DIPC   NC324493  22.862  21.912   3.055  0.3878  0.1969 -0.0077
    1DIPC   PO424494  22.470  21.781   3.265  0.0937 -0.1099  0.0692
    1DIPC   GL124495  22.412  21.709   3.657  0.2713 -0.1405 -0.0059
    1DIPC   GL224496  22.353  22.003   3.830 -0.2402  0.2896 -0.1554
    1DIPC   C1A24497  22.524  21.517   4.003  0.0702  0.1757  0.1292
    1DIPC   D2A24498  22.428  21.256   4.414 -0.1242 -0.0173 -0.3945
    1DIPC   D3A24499  21.973  21.261   4.756  0.0939  0.0226 -0.0456
    1DIPC   C4A24500  21.780  20.901   4.762  0.1035 -0.0482  0.1079
    1DIPC   C1B24501  21.952  22.111   3.989 -0.0174 -0.1402  0.0865
    1DIPC   D2B24502  21.661  22.247   4.387 -0.2960  0.1017  0.1133
    1DIPC   D3B24503  21.574  22.709   4.475  0.0331 -0.0030  0.1744
    1DIPC   C4B24504  21.512  22.859   4.125  0.3247  0.5727 -0.2210
    1DIPC   NC324505   0.192   8.804   2.108 -0.1346 -0.1322 -0.0008
    1DIPC   PO424506   0.451   8.547   2.434  0.2722  0.1310  0.0234
    1DIPC   GL124507   0.513   8.487   2.812  0.0116  0.0011 -0.0225
    1DIPC   GL224508   0.769   8.342   2.915  0.0489 -0.0955  0.0590
    1DIPC   C1A24509   0.477   8.781   3.206  0.1931  0.5360 -0.2109
    1DIPC   D2A24510   0.708   8.600   3.452  0.0851  0.1623  0.3425
    1DIPC   D3A24511   0.605   8.258   3.730  0.2842 -0.0966 -0.0069
    1DIPC   C4A24512   0.532   8.339   4.104  0.0715  0.2602  0.2295
    1DIPC   C1B24513   0.775   7.958   3.147  0.3054  0.0646  0.0204
    1DIPC   D2B24514   0.583   7.702   3.353 -0.2189 -0.1381  0.0100
    1DIPC   D3B24515   0.502   7.473   3.791  0.2307 -0.1092 -0.0097
    1DIPC   C4B24516   0.749   7.354   4.161  0.1017 -0.0540  0.0958
    1DIPC   NC324517   9.617  26.007   3.195 -0.2195  0.0515  0.2605
    1DIPC   PO424518   9.543  26.368   3.456  0.0893  0.0047  0.4609
    1DIPC   GL124519   9.340  26.275   3.850  0.0133 -0.1938  0.0466
    1DIPC   GL224520   9.169  26.583   3.988 -0.1701  0.2281  0.0652
    1DIPC   C1A24521   9.510  26.196   4.332  0.1177  0.1817  0.1150
    1DIPC   D2A24522   9.615  26.104   4.719 -0.1331 -0.0802  0.3420
    1DIPC   D3A24523   9.826  25.811   4.479 -0.0749  0.2055 -0.2206
    1DIPC   C4A24524  10.163  25.520   4.738  0.1803  0.1796 -0.1316
    1DIPC   C1B24525   9.025  26.559   4.315  0.3037 -0.0436 -0.1928
    1DIPC   D2B24526   8.851  26.562   4.654 -0.1847 -0.1655 -0.5473
    1DIPC   D3B24527   8.540  26.384   4.776  0.0279 -0.1365  0.1548
    1DIPC   C4B24528   8.094  26.288   4.823  0.6109 -0.0029  0.1999
    1DIPC   NC324529  17.154  26.826   3.322  0.1684 -0.0637 -0.0493
    1DIPC   PO424530  16.827  26.552   3.432  0.2719  0.2508 -0.1146
    1DIPC   GL124531  16.873  26.540   3.887  0.1737 -0.2204 -0.2604
    1DIPC   GL224532  17.194  26.544   3.777  0.0270  0.2245 -0.2256
    1DIPC   C1A24533  16.901  26.653   4.240 -0.0376 -0.0349 -0.6309
    1DIPC   D2A24534  17.182  26.435   4.706  0.1947  0.6023  0.0969
    1DIPC   D3A24535  17.025  26.344   5.167  0.3582 -0.0050  0.0200
    1DIPC   C4A24536  17.215  26.739   5.486  0.0721 -0.2215 -0.3845
    1DIPC   C1B24537  17.257  26.292   4.138  0.2926  0.3992  0.0546
    1DIPC   D2B24538  17.288  25.948   4.546 -0.3982 -0.3861 -0.1574
    1DIPC   D3B24539  17.387  25.987   4.989 -0.1030 -0.0331  0.2296
    1DIPC   C4B24540  17.605  26.265   5.277 -0.0381  0.0661  0.0068
    1DIPC   NC324541   6.874  11.740   3.153 -0.0072 -0.0928 -0.1277
    1DIPC   PO424542   7.242  11.372   2.912 -0.3206  0.0897 -0.0500
    1DIPC   GL124543   7.253  11.428   3.354  0.2027 -0.0191  0.1191
    1DIPC   GL224544   7.106  11.612   3.540  0.1181 -0.1200 -0.1819
    1DIPC   C1A24545   7.209  11.112   3.729  0.0827  0.0301 -0.0726
    1DIPC   D2A24546   6.782  11.090   3.841  0.0502 -0.0679 -0.0194
    1DIPC   D3A24547   6.674  10.874   4.229 -0.3121  0.2107 -0.1273
    1DIPC   C4A24548   6.673  11.002   4.678 -0.0813  0.0224 -0.0703
    1DIPC   C1B24549   6.987  11.639   3.936 -0.1664  0.1712  0.1175
    1DIPC   D2B24550   6.937  11.576   4.339 -0.1184  0.0727  0.2798
    1DIPC   D3B24551   6.980  11.934   4.402 -0.0903 -0.1048  0.1748
    1DIPC   C4B24552   6.774  12.217   4.717 -0.2332 -0.0237  0.1169
    1DIPC   NC324553  14.828  28.365   4.197  0.1623  0.0353  0.0273
    1DIPC   PO424554  14.668  27.911   4.197  0.0920  0.3248 -0.1967
    1DIPC   GL124555  14.771  28.138   4.616 -0.1759 -0.1470 -0.0474
    1DIPC   GL224556  14.643  28.083   4.844 -0.1428 -0.0913 -0.0536
    1DIPC   C1A24557  15.099  28.127   5.041  0.0592 -0.1547  0.1514
    1DIPC   D2A24558  15.206  28.199   5.461  0.1760 -0.0675 -0.0105
    1DIPC   D3A24559  15.464  27.829   5.262  0.0115  0.0535  0.0329
    1DIPC   C4A24560  15.351  27.614   4.812  0.1834  0.2112 -0.1736
    1DIPC   C1B24561  14.817  27.697   5.070 -0.2943  0.2374 -0.1609
    1DIPC   D2B24562  14.664  27.412   5.392  0.2364  0.2079 -0.2393
    1DIPC   D3B24563  14.638  27.795   5.576 -0.1527 -0.2209  0.1075
    1DIPC   C4B24564  14.682  28.163   5.300 -0.0157 -0.1988 -0.0614
    1DIPC   NC324565  14.294  24.527   3.208  0.3173 -0.3190 -0.1298
    1DIPC   PO424566  14.544  24.172   3.173  0.2478 -0.1167  0.1990
    1DIPC   GL124567  14.570  24.227   3.642 -0.0119 -0.1685 -0.1179
    1DIPC   GL224568  14.436  24.617   3.692 -0.1567  0.0539  0.2389
    1DIPC   C1A24569  14.488  24.114   4.076  0.1973 -0.0337 -0.0389
    1DIPC   D2A24570  14.266  24.363   4.449 -0.2019 -0.1449 -0.1217
    1DIPC   D3A24571  14.226  24.244   4.824 -0.1481  0.0627 -0.1355
    1DIPC   C4A24572  14.030  24.410   5.149 -0.1556 -0.4470 -0.0089
    1DIPC   C1B24573  14.439  24.621   4.099 -0.1816 -0.0645  0.0995
    1DIPC   D2B24574  14.661  24.740   4.529  0.0029  0.2170 -0.3080
    1DIPC   D3B24575  14.803  25.129   4.567  0.0221 -0.0063  0.0072
    1DIPC   C4B24576  14.932  25.330   4.977 -0.2324  0.1309 -0.2653
    1DIPC   NC324577   7.840   3.243   2.906 -0.3178 -0.0183  0.1151
    1DIPC   PO424578   7.809   2.780   2.937  0.1409  0.0071  0.4259
    1DIPC   GL124579   7.875   2.653   3.325  0.0919 -0.0172  0.0382
    1DIPC   GL224580   7.587   2.527   3.424 -0.2856  0.3850  0.0229
    1DIPC   C1A24581   8.059   2.548   3.743 -0.1250 -0.0618 -0.1946
    1DIPC   D2A24582   7.900   2.396   4.162  0.1687 -0.2014 -0.2137
    1DIPC   D3A24583   8.205   2.227   4.509  0.0449  0.0509 -0.1577
    1DIPC   C4A24584   8.199   2.237   4.969  0.3943  0.1409 -0.2309
    1DIPC   C1B24585   7.479   2.291   3.850 -0.0330 -0.0572  0.1393
    1DIPC   D2B24586   7.417   1.878   4.114  0.1844  0.0970 -0.0598
    1DIPC   D3B24587   7.718   2.030   4.411 -0.0967  0.0359 -0.0081
    1DIPC   C4B24588   7.848   2.497   4.624  0.1848 -0.0365  0.0653
    1DIPC   NC324589  23.974  10.089   2.421 -0.3374  0.1514 -0.0966
    1DIPC   PO424590  23.915  10.427   2.687 -0.3011  0.1090 -0.3048
    1DIPC   GL124591  24.012  10.362   3.107 -0.2019 -0.3228  0.1894
    1DIPC   GL224592  23.692  10.414   3.228  0.2892 -0.1847  0.3063
    1DIPC   C1A24593  24.360  10.274   3.319  0.0607 -0.2333  0.2413
    1DIPC   D2A24594  24.604  10.544   3.527  0.1834  0.0195  0.0374
    1DIPC   D3A24595  25.092  10.388   3.461 -0.1323 -0.1114 -0.0737
    1DIPC   C4A24596  25.287   9.923   3.225 -0.3538 -0.3396  0.1544
    1DIPC   C1B24597  23.524  10.559   3.643  0.1742 -0.0751 -0.3292
    1DIPC   D2B24598  23.382  10.398   3.935 -0.0183 -0.0802  0.2551
    1DIPC   D3B24599  23.678  10.439   4.207 -0.1477 -0.1658 -0.0545
    1DIPC   C4B24600  23.813  10.137   4.573  0.0570 -0.0934  0.1134
    1DIPC   NC324601   5.331  16.859   2.240  0.4069  0.2031 -0.0186
    1DIPC   PO424602   5.682  16.458   2.372 -0.1809 -0.1171 -0.0591
    1DIPC   GL124603   5.475  16.585   2.649 -0.3960  0.3382 -0.0335
    1DIPC   GL224604   5.153  16.647   2.705 -0.0825 -0.0724 -0.0442
    1DIPC   C1A24605   5.433  16.598   3.073  0.0387 -0.0028  0.4386
    1DIPC   D2A24606   5.400  16.347   3.315  0.1268 -0.0913 -0.1460
    1DIPC   D3A24607   5.534  16.673   3.657  0.1311 -0.1344  0.4461
    1DIPC   C4A24608   5.709  16.378   3.984 -0.1251  0.1537 -0.0743
    1DIPC   C1B24609   4.973  16.537   3.050  0.2259 -0.2778 -0.0511
    1DIPC   D2B24610   4.895  16.467   3.525  0.0982 -0.1919 -0.1313
    1DIPC   D3B24611   4.616  16.873   3.526  0.3589 -0.0771 -0.1019
    1DIPC   C4B24612   4.773  17.199   3.703  0.2351  0.1169 -0.2014
    1DIPC   NC324613  27.631   5.399   2.149 -0.0072 -0.0824  0.1130
    1DIPC   PO424614  27.700   5.230   2.435 -0.2251  0.0082  0.3549
    1DIPC   GL124615  27.582   5.273   2.901  0.1548  0.2784 -0.0208
    1DIPC   GL224616  27.430   5.064   2.949  0.0892  0.0820 -0.0825
    1DIPC   C1A24617  27.571   5.663   3.119  0.0486  0.0508 -0.0897
    1DIPC   D2A24618  27.726   6.056   3.138 -0.0854 -0.1343  0.0191
    1DIPC   D3A24619  27.762   6.151   3.572  0.0849 -0.2031 -0.0294
    1DIPC   C4A24620  27.642   6.619   3.682 -0.2894 -0.2182  0.1577
    1DIPC   C1B24621  27.350   4.848   3.241 -0.0701 -0.3152  0.0466
    1DIPC   D2B24622  27.121   4.635   3.506  0.3225  0.1112  0.0564
    1DIPC   D3B24623  27.267   4.561   3.932 -0.0896  0.2129 -0.1492
    1DIPC   C4B24624  26.987   4.256   4.057  0.1746 -0.2073 -0.1832
    1DIPC   NC324625   1.726  28.984   2.656  0.3456  0.1046  0.3118
    1DIPC   PO424626   1.689  28.557   2.897  0.1285  0.1708 -0.0949
    1DIPC   GL124627   1.408  28.536   3.283  0.3154  0.1671 -0.2295
    1DIPC   GL224628   1.620  28.587   3.494 -0.1308 -0.0771  0.2047
    1DIPC   C1A24629   1.142  28.599   3.702  0.0229  0.3139  0.0425
    1DIPC   D2A24630   0.946  28.695   4.128 -0.0549 -0.0331 -0.1131
    1DIPC   D3A24631   1.153  28.491   4.363  0.0765  0.1226 -0.1308
    1DIPC   C4A24632   1.650  28.491   4.422  0.0608 -0.2081  0.2164
    1DIPC   C1B24633   1.576  28.386   3.911  0.0368 -0.2891 -0.1508
    1DIPC   D2B24634   1.694  28.021   4.151  0.2248  0.0289  0.0449
    1DIPC   D3B24635   1.916  27.802   4.447  0.1546 -0.0333 -0.0421
    1DIPC   C4B24636   1.788  27.582   4.775  0.0052 -0.0597 -0.1380
    1DIPC   NC324637   4.230  18.239   2.030 -0.1490 -0.1718  0.5015
    1DIPC   PO424638   4.554  18.550   2.274 -0.2433  0.2847  0.0693
    1DIPC   GL124639   4.353  18.457   2.665  0.3567 -0.0926  0.4218
    1DIPC   GL224640   4.507  18.538   2.966  0.4949 -0.2788 -0.0034
    1DIPC   C1A24641   3.999  18.352   3.005  0.0109 -0.1621 -0.0097
    1DIPC   D2A24642   3.808  18.001   3.379  0.1989  0.0635  0.0179
    1DIPC   D3A24643   3.991  17.615   3.632  0.1308 -0.0676  0.2340
    1DIPC   C4A24644   4.370  17.448   3.785  0.2017 -0.0400 -0.1768
    1DIPC   C1B24645   4.565  18.340   3.307  0.3999  0.2126 -0.3244
    1DIPC   D2B24646   4.470  18.263   3.765 -0.0814  0.1048  0.2498
    1DIPC   D3B24647   4.867  18.130   3.626 -0.3598  0.0260  0.1649
    1DIPC   C4B24648   5.190  17.954   3.689 -0.1205 -0.0533 -0.0645
    1DIPC   NC324649   8.336   5.743   3.291 -0.2849 -0.0077 -0.3298
    1DIPC   PO424650   8.350   5.416   3.460 -0.2854  0.1951 -0.0715
    1DIPC   GL124651   8.388   5.249   3.803 -0.1000 -0.0810 -0.4548
    1DIPC   GL224652   8.463   5.438   4.045 -0.0743  0.1656 -0.0930
    1DIPC   C1A24653   8.163   5.052   4.246  0.0720  0.3439 -0.1354
    1DIPC   D2A24654   7.912   5.150   4.614 -0.2552  0.0339 -0.1608
    1DIPC   D3A24655   7.513   5.076   4.591  0.0332  0.1827 -0.1797
    1DIPC   C4A24656   7.255   4.896   4.930  0.0684 -0.0221 -0.3668
    1DIPC   C1B24657   8.240   5.520   4.459 -0.0815 -0.0330 -0.0887
    1DIPC   D2B24658   7.812   5.602   4.496 -0.3327 -0.3337  0.1361
    1DIPC   D3B24659   7.641   6.000   4.580 -0.3469 -0.1156 -0.0754
    1DIPC   C4B24660   7.467   5.950   5.042  0.3662 -0.1409 -0.0553
    1DIPC   NC324661   2.602  20.744   2.376  0.0746  0.0683  0.0869
    1DIPC   PO424662   2.903  20.380   2.480  0.4423 -0.3323  0.0606
    1DIPC   GL124663   2.779  20.269   2.889  0.2337 -0.2352  0.3019
    1DIPC   GL224664   2.865  20.393   3.234  0.2583 -0.2327 -0.1451
    1DIPC   C1A24665   2.780  19.947   3.137  0.4258  0.2780  0.1854
    1DIPC   D2A24666   2.482  19.689   3.409  0.0931 -0.2842 -0.0021
    1DIPC   D3A24667   2.717  19.632   3.866  0.0679 -0.0628  0.2566
    1DIPC   C4A24668   2.509  19.457   4.218 -0.1650  0.0717 -0.0795
    1DIPC   C1B24669   3.048  20.578   3.590 -0.0870  0.0474  0.0349
    1DIPC   D2B24670   3.233  20.306   3.937  0.0247 -0.0216 -0.3011
    1DIPC   D3B24671   3.711  20.286   3.913 -0.4600  0.1985 -0.0154
    1DIPC   C4B24672   3.915  20.581   4.150  0.1211 -0.1930  0.1209
    1DIPC   NC324673  22.191  23.304   3.102  0.1314  0.1463  0.4735
    1DIPC   PO424674  21.833  23.624   3.153 -0.3302  0.1320  0.0275
    1DIPC   GL124675  22.107  23.655   3.508 -0.0603 -0.0828 -0.3756
    1DIPC   GL224676  22.165  23.957   3.731  0.2323  0.0853  0.0690
    1DIPC   C1A24677  22.052  23.503   3.982 -0.1439  0.0955  0.1860
    1DIPC   D2A24678  22.280  23.660   4.333  0.1483 -0.1183  0.2047
    1DIPC   D3A24679  21.934  23.574   4.561  0.0506  0.2682  0.1184
    1DIPC   C4A24680  21.825  23.848   4.911  0.2485 -0.0383  0.2456
    1DIPC   C1B24681  21.769  23.935   3.964 -0.1112 -0.0100  0.2802
    1DIPC   D2B24682  21.461  23.752   4.161 -0.0576 -0.1767  0.3479
    1DIPC   D3B24683  21.627  24.046   4.477  0.3329  0.0481 -0.0699
    1DIPC   C4B24684  21.921  24.350   4.337 -0.1281 -0.1271  0.1728
    1DIPC   NC324685  24.450  14.507   1.956  0.0640 -0.0372 -0.0240
    1DIPC   PO424686  24.344  14.129   1.948 -0.1099  0.0070  0.3432
    1DIPC   GL124687  24.516  14.202   2.336 -0.1243 -0.1178  0.2485
    1DIPC   GL224688  24.289  14.308   2.524 -0.2230 -0.1091  0.2288
    1DIPC   C1A24689  24.866  14.203   2.551  0.0459  0.5064 -0.0838
    1DIPC   D2A24690  25.149  14.275   2.923 -0.0162 -0.2801  0.0649
    1DIPC   D3A24691  25.118  14.329   3.387 -0.0600  0.0716  0.3219
    1DIPC   C4A24692  24.758  14.258   3.708  0.1595 -0.0965 -0.0384
    1DIPC   C1B24693  24.455  13.877   2.738  0.1116  0.3192 -0.0524
    1DIPC   D2B24694  24.481  13.624   3.087 -0.1472 -0.1494 -0.4329
    1DIPC   D3B24695  24.911  13.492   2.887  0.2054  0.0212 -0.0248
    1DIPC   C4B24696  25.277  13.214   2.858 -0.0481 -0.1518  0.1798
    1DIPC   NC324697   5.892  11.104   2.926 -0.0800  0.0654 -0.0498
    1DIPC   PO424698   6.349  11.001   2.804 -0.2003  0.0959  0.0822
    1DIPC   GL124699   6.334  10.996   3.319  0.2728  0.1731  0.1654
    1DIPC   GL224700   6.017  10.859   3.372 -0.1443 -0.1366  0.1230
    1DIPC   C1A24701   6.307  11.093   3.697  0.1705  0.0432  0.1922
    1DIPC   D2A24702   5.900  11.148   3.889 -0.0219 -0.1779 -0.2015
    1DIPC   D3A24703   6.031  11.536   3.914  0.1478  0.0435 -0.1298
    1DIPC   C4A24704   6.016  11.796   4.277 -0.0015 -0.1534  0.0159
    1DIPC   C1B24705   6.063  10.656   3.791 -0.0150  0.0481  0.0113
    1DIPC   D2B24706   6.226  10.714   4.241  0.2395 -0.1363 -0.2678
    1DIPC   D3B24707   6.131  11.235   4.369 -0.1435  0.2182 -0.2141
    1DIPC   C4B24708   6.473  11.419   4.299 -0.0923  0.1261  0.0511
    1DIPC   NC324709  20.178  28.435   3.164  0.2449 -0.0923  0.2279
    1DIPC   PO424710  20.568  28.656   3.258 -0.0718  0.1082  0.1250
    1DIPC   GL124711  20.809  28.881   3.628 -0.1272 -0.1744 -0.1663
    1DIPC   GL224712  20.876  28.523   3.733  0.1296  0.1454  0.0470
    1DIPC   C1A24713  21.058  28.846   4.125 -0.0359 -0.1402 -0.3376
    1DIPC   D2A24714  21.001  29.351   4.259 -0.1551  0.0516 -0.3733
    1DIPC   D3A24715  21.500  29.393   4.321 -0.1532  0.1219 -0.4810
    1DIPC   C4A24716  21.702  29.711   4.436  0.0313 -0.0208  0.1970
    1DIPC   C1B24717  20.959  28.312   4.060  0.1627 -0.0389  0.0139
    1DIPC   D2B24718  20.925  28.290   4.555  0.0413 -0.1203  0.2736
    1DIPC   D3B24719  21.132  28.684   4.746  0.3086 -0.0722 -0.3693
    1DIPC   C4B24720  21.463  28.933   4.492 -0.1001 -0.0049  0.0841
    1DIPC   NC324721  24.831  10.060   2.385  0.0789 -0.1031  0.0695
    1DIPC   PO424722  25.192  10.321   2.431 -0.2138  0.0641  0.0767
    1DIPC   GL124723  25.425  10.394   2.873  0.0464 -0.1892  0.0777
    1DIPC   GL224724  25.693  10.438   2.782  0.0084 -0.3181  0.0861
    1DIPC   C1A24725  25.485  10.605   3.271  0.0885 -0.1351 -0.1962
    1DIPC   D2A24726  25.528  10.232   3.681  0.0450 -0.2837 -0.1377
    1DIPC   D3A24727  25.746   9.956   3.528 -0.2280  0.3386  0.3079
    1DIPC   C4A24728  26.050   9.884   3.390 -0.1579  0.2321  0.2148
    1DIPC   C1B24729  25.917  10.419   3.152 -0.2331 -0.1323  0.2566
    1DIPC   D2B24730  26.241  10.367   3.437 -0.1498  0.0041  0.3052
    1DIPC   D3B24731  26.024  10.380   3.892 -0.1021  0.0133 -0.5693
    1DIPC   C4B24732  25.735  10.057   4.164  0.2322 -0.0859 -0.2515
    1DIPC   NC324733  10.065   1.836   3.167  0.3786 -0.2304 -0.0222
    1DIPC   PO424734  10.081   1.585   3.459  0.3810  0.1330 -0.0176
    1DIPC   GL124735  10.108   1.756   3.871 -0.1995  0.2069 -0.2793
    1DIPC   GL224736  10.125   1.458   4.039 -0.2124 -0.1438 -0.0945
    1DIPC   C1A24737  10.196   1.969   4.168 -0.2898 -0.0138 -0.0218
    1DIPC   D2A24738  10.243   2.209   4.537 -0.0270 -0.0475  0.1676
    1DIPC   D3A24739  10.144   2.535   4.819 -0.0830 -0.0120 -0.0107
    1DIPC   C4A24740  10.397   2.472   5.243 -0.1437 -0.2255  0.2666
    1DIPC   C1B24741   9.922   1.655   4.404 -0.0891  0.1741 -0.1361
    1DIPC   D2B24742   9.746   2.038   4.623  0.1304  0.1020 -0.0237
    1DIPC   D3B24743   9.687   1.742   4.859 -0.3574  0.1030  0.2263
    1DIPC   C4B24744   9.483   1.594   5.104  0.1719  0.1996 -0.0367
    1DIPC   NC324745   3.981  19.720   2.368 -0.0289  0.1864 -0.0296
    1DIPC   PO424746   4.158  19.299   2.442  0.0364 -0.0384 -0.1037
    1DIPC   GL124747   4.465  19.610   2.554  0.2195  0.0433  0.0854
    1DIPC   GL224748   4.684  19.434   2.766  0.2465 -0.1370 -0.0656
    1DIPC   C1A24749   4.797  19.939   2.644 -0.1882  0.1426 -0.0853
    1DIPC   D2A24750   4.853  20.230   2.822 -0.3552 -0.1742 -0.2322
    1DIPC   D3A24751   5.245  20.380   2.675  0.1683 -0.1331  0.0093
    1DIPC   C4A24752   5.355  20.776   2.976  0.1677  0.0286 -0.2691
    1DIPC   C1B24753   4.952  19.545   3.161  0.0982 -0.0461  0.0242
    1DIPC   D2B24754   4.969  19.795   3.456  0.0567  0.0423  0.0405
    1DIPC   D3B24755   5.253  19.419   3.624 -0.2219  0.2803  0.0114
    1DIPC   C4B24756   5.171  19.215   4.023  0.3429  0.2446 -0.0245
    1DIPC   NC324757   5.863   7.024   3.098 -0.2487  0.0397 -0.1563
    1DIPC   PO424758   6.127   6.730   2.851  0.0706 -0.4662 -0.2298
    1DIPC   GL124759   6.310   6.858   3.326 -0.0673  0.0906  0.2663
    1DIPC   GL224760   6.453   6.525   3.492  0.0889  0.3024  0.3713
    1DIPC   C1A24761   6.459   6.995   3.715 -0.1392 -0.1378  0.0015
    1DIPC   D2A24762   6.807   6.805   3.814  0.5128 -0.0573 -0.3271
    1DIPC   D3A24763   7.107   6.824   3.998  0.0253  0.0398 -0.0058
    1DIPC   C4A24764   7.083   6.426   4.233  0.1236  0.1184  0.1315
    1DIPC   C1B24765   6.058   6.444   3.782 -0.2758  0.2803  0.2240
    1DIPC   D2B24766   5.878   6.088   3.846  0.1225  0.0509 -0.0180
    1DIPC   D3B24767   6.007   6.313   4.324  0.1840 -0.2091  0.0652
    1DIPC   C4B24768   5.708   6.435   4.661  0.1198 -0.0776 -0.4093
    1DIPC   NC324769  19.723   4.496   2.773 -0.2810 -0.0022 -0.1084
    1DIPC   PO424770  20.037   4.678   3.045 -0.0885 -0.2216  0.0854
    1DIPC   GL124771  19.940   4.825   3.394  0.3533  0.2214 -0.0076
    1DIPC   GL224772  19.978   5.110   3.403  0.2036  0.0138 -0.1475
    1DIPC   C1A24773  20.022   4.826   3.791 -0.0257  0.1150 -0.1458
    1DIPC   D2A24774  20.103   5.231   3.950  0.1066 -0.1696  0.0394
    1DIPC   D3A24775  19.839   5.194   4.243 -0.2876 -0.0903  0.2268
    1DIPC   C4A24776  19.607   5.108   4.628 -0.5303  0.2496 -0.0889
    1DIPC   C1B24777  20.343   5.381   3.491  0.3221 -0.2932  0.1064
    1DIPC   D2B24778  20.635   5.369   3.732 -0.2649  0.0820  0.2593
    1DIPC   D3B24779  20.650   5.769   3.563  0.2149 -0.1347 -0.2483
    1DIPC   C4B24780  20.594   6.122   3.818  0.0485 -0.0823 -0.2664
    1DIPC   NC324781  10.232  20.761   1.971  0.0729  0.3007 -0.3596
    1DIPC   PO424782  10.374  20.970   2.412  0.2452 -0.0397 -0.1010
    1DIPC   GL124783  10.077  20.941   2.800 -0.2813  0.0319 -0.1485
    1DIPC   GL224784   9.859  20.634   2.908  0.0381 -0.1329  0.0920
    1DIPC   C1A24785   9.893  21.156   3.178 -0.1765  0.1109 -0.2392
    1DIPC   D2A24786   9.970  21.121   3.643  0.2483 -0.0374  0.0046
    1DIPC   D3A24787   9.867  21.113   4.127 -0.4395 -0.1449  0.0101
    1DIPC   C4A24788   9.629  21.551   4.293 -0.0385 -0.0154  0.0993
    1DIPC   C1B24789  10.089  20.643   3.289 -0.1950 -0.0317 -0.0821
    1DIPC   D2B24790  10.447  20.757   3.452  0.1714  0.0249 -0.1346
    1DIPC   D3B24791  10.379  20.865   3.860  0.3350 -0.5295 -0.0527
    1DIPC   C4B24792  10.505  21.121   4.192  0.3485 -0.0204  0.0473
    1DIPC   NC324793   9.762  15.251   1.983  0.1137 -0.0762  0.1340
    1DIPC   PO424794   9.544  15.723   2.141 -0.2273 -0.1296 -0.1464
    1DIPC   GL124795   9.421  15.753   2.592 -0.0558 -0.1611  0.3931
    1DIPC   GL224796   9.114  15.797   2.673  0.0732 -0.0999 -0.1228
    1DIPC   C1A24797   9.466  15.944   2.969  0.1629 -0.1979 -0.0501
    1DIPC   D2A24798   9.478  15.946   3.374 -0.1965  0.0795 -0.0291
    1DIPC   D3A24799   9.783  15.779   3.604  0.1655 -0.2340 -0.0585
    1DIPC   C4A24800   9.539  15.501   3.879  0.0608  0.0872  0.0158
    1DIPC   C1B24801   9.019  15.771   3.126 -0.3632  0.0385 -0.4237
    1DIPC   D2B24802   9.098  15.663   3.602  0.1416  0.2679  0.1480
    1DIPC   D3B24803   9.129  15.143   3.714 -0.0257  0.0137 -0.0414
    1DIPC   C4B24804   9.545  15.032   3.813 -0.0640 -0.2544 -0.1187
    1DIPC   NC324805  25.949   3.953   2.578  0.1194  0.4961  0.2120
    1DIPC   PO424806  26.155   3.544   2.765  0.4297  0.1959 -0.2551
    1DIPC   GL124807  26.130   3.846   3.095 -0.1139  0.0073 -0.0945
    1DIPC   GL224808  26.332   4.090   3.284 -0.2064 -0.1266  0.0050
    1DIPC   C1A24809  25.807   3.946   3.322 -0.2042  0.0026  0.1079
    1DIPC   D2A24810  25.482   3.790   3.533 -0.0914  0.1167  0.0944
    1DIPC   D3A24811  25.516   3.589   3.941  0.0470  0.1734 -0.1209
    1DIPC   C4A24812  25.391   3.859   4.222 -0.0562  0.0133 -0.2273
    1DIPC   C1B24813  26.089   4.465   3.357 -0.3389 -0.0265  0.2920
    1DIPC   D2B24814  25.656   4.653   3.228  0.2739 -0.0353 -0.1153
    1DIPC   D3B24815  25.703   4.832   3.542 -0.0339 -0.1123  0.0247
    1DIPC   C4B24816  25.630   4.700   3.950  0.0187  0.1072 -0.2419
    1DIPC   NC324817  21.201  25.021   3.319 -0.1241  0.1788 -0.1266
    1DIPC   PO424818  21.451  25.364   3.296 -0.1602 -0.0089  0.0986
    1DIPC   GL124819  21.245  25.658   3.503  0.2754  0.0436 -0.3545
    1DIPC   GL224820  21.303  25.423   3.738 -0.0117  0.5916  0.2150
    1DIPC   C1A24821  20.942  25.743   3.854 -0.1273 -0.2937  0.0528
    1DIPC   D2A24822  21.015  25.549   4.245  0.2947 -0.1027  0.1080
    1DIPC   D3A24823  21.078  25.507   4.719 -0.1433  0.0545  0.2839
    1DIPC   C4A24824  20.948  25.232   4.955  0.1275  0.1149  0.1434
    1DIPC   C1B24825  21.283  25.097   4.076 -0.1361 -0.2904 -0.1175
    1DIPC   D2B24826  21.294  25.084   4.500 -0.0833 -0.1308 -0.0448
    1DIPC   D3B24827  21.687  25.265   4.796  0.0059 -0.0532  0.5046
    1DIPC   C4B24828  21.724  25.638   4.975 -0.0477 -0.0033  0.1067
    1DIPC   NC324829   3.644  13.430   2.912 -0.0579  0.0704  0.4322
    1DIPC   PO424830   3.215  13.290   2.831 -0.0505  0.0696  0.0176
    1DIPC   GL124831   3.175  13.509   3.223  0.0167 -0.0138  0.2522
    1DIPC   GL224832   3.398  13.329   3.489 -0.0690 -0.2662  0.1347
    1DIPC   C1A24833   3.135  13.780   3.550 -0.1926  0.1303  0.1502
    1DIPC   D2A24834   2.835  13.947   3.837  0.0508  0.0664 -0.0492
    1DIPC   D3A24835   2.917  14.372   3.558  0.0291 -0.0060  0.3506
    1DIPC   C4A24836   3.024  14.735   3.690  0.1868 -0.0340 -0.0694
    1DIPC   C1B24837   3.777  13.326   3.702 -0.3516  0.1725  0.4018
    1DIPC   D2B24838   4.018  13.530   4.007 -0.1587  0.2771 -0.0901
    1DIPC   D3B24839   3.936  13.985   4.292  0.2148  0.0362  0.1014
    1DIPC   C4B24840   4.217  14.171   4.602 -0.0235 -0.0576 -0.0601
    1DIPC   NC324841  17.532   7.998   3.095  0.0836 -0.1717 -0.3267
    1DIPC   PO424842  17.894   8.126   3.172 -0.2836  0.1727  0.1842
    1DIPC   GL124843  18.278   7.949   3.241 -0.0057 -0.0120  0.1123
    1DIPC   GL224844  18.388   8.178   3.327  0.1808  0.3174 -0.1770
    1DIPC   C1A24845  18.434   7.798   3.742  0.0780  0.3300 -0.0905
    1DIPC   D2A24846  18.251   7.728   4.151 -0.1255  0.0846  0.0618
    1DIPC   D3A24847  18.292   7.435   4.556  0.0516  0.0871 -0.0660
    1DIPC   C4A24848  18.669   7.450   4.799  0.1826  0.1203 -0.0824
    1DIPC   C1B24849  18.376   8.324   3.751  0.0086 -0.1324 -0.3335
    1DIPC   D2B24850  18.352   8.570   4.146  0.1913  0.1095  0.0822
    1DIPC   D3B24851  18.806   8.601   4.262 -0.4231  0.0444 -0.2513
    1DIPC   C4B24852  18.853   8.340   4.683  0.1569 -0.0250 -0.0887
    1DIPC   NC324853  19.612  19.400   3.376 -0.2665  0.0701  0.1888
    1DIPC   PO424854  19.519  19.764   3.287 -0.0309  0.2672  0.0539
    1DIPC   GL124855  19.414  19.824   3.681 -0.1854 -0.0155 -0.2605
    1DIPC   GL224856  19.100  19.806   3.781  0.1915 -0.1017 -0.3374
    1DIPC   C1A24857  19.685  19.865   4.143 -0.0931 -0.1357  0.0506
    1DIPC   D2A24858  19.922  20.150   4.468 -0.1442 -0.0864  0.1909
    1DIPC   D3A24859  19.892  20.236   4.893  0.2441 -0.0580  0.2426
    1DIPC   C4A24860  19.973  19.791   5.256  0.0948 -0.1357  0.2086
    1DIPC   C1B24861  19.110  20.016   4.175  0.1997 -0.3439 -0.1230
    1DIPC   D2B24862  19.304  20.025   4.581 -0.1512 -0.0586 -0.2005
    1DIPC   D3B24863  19.414  20.431   4.845 -0.0069 -0.1221 -0.0964
    1DIPC   C4B24864  19.358  20.901   4.622  0.0394  0.2645 -0.1633
    1DIPC   NC324865  21.765  27.534   3.225  0.2546  0.0749 -0.2019
    1DIPC   PO424866  21.665  27.124   3.145 -0.0954 -0.1254 -0.0281
    1DIPC   GL124867  21.903  26.761   3.428 -0.3824 -0.0052  0.1061
    1DIPC   GL224868  22.003  26.977   3.574  0.1320  0.1531 -0.3295
    1DIPC   C1A24869  22.283  26.514   3.709  0.0483  0.1402 -0.2947
    1DIPC   D2A24870  22.300  26.445   4.031  0.2272  0.2435  0.0711
    1DIPC   D3A24871  22.542  26.800   4.048 -0.1641  0.2341 -0.1780
    1DIPC   C4A24872  22.437  26.918   4.409 -0.0153  0.1647  0.1006
    1DIPC   C1B24873  22.091  27.302   3.877 -0.1305  0.0259  0.1457
    1DIPC   D2B24874  21.866  27.557   4.093 -0.0737  0.1620  0.2347
    1DIPC   D3B24875  21.608  27.597   3.731  0.2421  0.2202 -0.1937
    1DIPC   C4B24876  21.280  28.035   3.835 -0.0368  0.0554  0.1396
    1DIPC   NC324877  24.921  26.679   3.415 -0.0543  0.2958  0.1576
    1DIPC   PO424878  25.378  26.840   3.486 -0.0455  0.1581 -0.4052
    1DIPC   GL124879  25.509  26.843   3.947  0.1743 -0.0215 -0.1026
    1DIPC   GL224880  25.486  26.548   4.065 -0.2802  0.1506  0.0021
    1DIPC   C1A24881  25.725  27.184   4.251 -0.0285 -0.2984 -0.1496
    1DIPC   D2A24882  26.115  27.313   4.359  0.5000  0.2833  0.1973
    1DIPC   D3A24883  25.924  27.658   4.094  0.0513  0.1683  0.1099
    1DIPC   C4A24884  25.764  28.060   4.416 -0.1181  0.0861  0.3112
    1DIPC   C1B24885  25.527  26.599   4.529 -0.0080 -0.0634 -0.0218
    1DIPC   D2B24886  25.762  26.467   4.880  0.0378  0.0869 -0.1307
    1DIPC   D3B24887  25.824  26.115   4.613  0.1227 -0.0002  0.1751
    1DIPC   C4B24888  26.032  26.204   4.176 -0.1264 -0.0373  0.2553
    1DIPC   NC324889  15.619  21.828   2.604  0.1826 -0.1803 -0.3070
    1DIPC   PO424890  15.596  21.375   2.660  0.0324 -0.1400  0.0224
    1DIPC   GL124891  15.604  21.609   3.092 -0.0585 -0.1180 -0.0147
    1DIPC   GL224892  15.391  21.371   3.282 -0.0426  0.0370 -0.0311
    1DIPC   C1A24893  15.558  21.818   3.510 -0.3124  0.0065  0.0154
    1DIPC   D2A24894  15.241  21.880   3.765 -0.0040 -0.1263  0.1342
    1DIPC   D3A24895  15.211  22.245   3.740  0.1163  0.3200  0.1684
    1DIPC   C4A24896  15.516  22.594   3.962  0.0821 -0.0138  0.1377
    1DIPC   C1B24897  15.463  21.000   3.389  0.3068  0.1527  0.1078
    1DIPC   D2B24898  15.506  20.955   3.841  0.1138  0.0984 -0.0194
    1DIPC   D3B24899  15.757  21.112   4.147 -0.2582  0.0066 -0.1625
    1DIPC   C4B24900  15.752  21.350   4.466 -0.0742 -0.4557 -0.0830
    1DIPC   NC324901  21.305  15.368   2.032  0.3892  0.1185 -0.0898
    1DIPC   PO424902  21.441  15.196   2.473 -0.0537 -0.1082  0.2234
    1DIPC   GL124903  21.394  14.948   2.776 -0.0180  0.0516  0.3106
    1DIPC   GL224904  21.551  14.623   2.855  0.0165 -0.1323 -0.0872
    1DIPC   C1A24905  21.601  14.912   3.277  0.1910  0.0443  0.1133
    1DIPC   D2A24906  21.543  14.571   3.461 -0.4492  0.1673  0.3422
    1DIPC   D3A24907  21.597  14.723   3.821  0.1832  0.1824 -0.0005
    1DIPC   C4A24908  21.997  14.661   4.114 -0.2571 -0.0624  0.1966
    1DIPC   C1B24909  21.928  14.531   3.081 -0.2451 -0.1567 -0.2536
    1DIPC   D2B24910  22.087  14.505   3.433  0.2658 -0.0691 -0.1510
    1DIPC   D3B24911  22.041  14.187   3.709  0.1218 -0.0764  0.3865
    1DIPC   C4B24912  22.165  14.210   4.134 -0.3501 -0.1310  0.1997
    1DIPC   NC324913   5.400  23.421   2.494  0.1176  0.1791 -0.1686
    1DIPC   PO424914   5.257  23.789   2.670 -0.1455  0.0831 -0.1381
    1DIPC   GL124915   5.184  23.567   3.076 -0.0345 -0.1710  0.4852
    1DIPC   GL224916   5.466  23.454   3.010  0.1854  0.2021 -0.3639
    1DIPC   C1A24917   5.003  23.193   3.352  0.0062  0.0111 -0.2173
    1DIPC   D2A24918   4.730  22.928   3.631  0.1762  0.3101  0.2708
    1DIPC   D3A24919   4.732  22.699   4.021 -0.1208  0.1463 -0.0705
    1DIPC   C4A24920   5.150  22.687   4.116  0.0484  0.1167  0.0293
    1DIPC   C1B24921   5.511  23.502   3.455  0.1644  0.0582 -0.5133
    1DIPC   D2B24922   5.385  23.766   3.800  0.0971 -0.2918 -0.0166
    1DIPC   D3B24923   5.266  23.453   3.939 -0.1104 -0.3767  0.0006
    1DIPC   C4B24924   5.272  23.066   3.782  0.0404  0.0239 -0.1628
    1DIPC   NC324925  27.873  13.075   2.618  0.1355  0.1422 -0.3318
    1DIPC   PO424926  27.736  12.718   2.899  0.0943  0.0325 -0.0750
    1DIPC   GL124927  27.797  12.335   3.215  0.1752 -0.3000 -0.0351
    1DIPC   GL224928  27.423  12.140   3.239  0.0465  0.0035  0.2051
    1DIPC   C1A24929  27.961  12.372   3.631  0.3433  0.0300  0.0071
    1DIPC   D2A24930  27.955  11.995   3.905  0.1917 -0.1308 -0.3458
    1DIPC   D3A24931  28.208  11.661   3.850 -0.0684  0.2256  0.3182
    1DIPC   C4A24932  28.525  11.586   3.463 -0.1575  0.0404 -0.1136
    1DIPC   C1B24933  27.326  12.385   3.540  0.0108 -0.0777  0.2241
    1DIPC   D2B24934  27.106  12.850   3.590  0.0593  0.0228  0.2821
    1DIPC   D3B24935  26.918  13.218   3.483  0.1101  0.1052  0.2279
    1DIPC   C4B24936  27.015  13.721   3.640 -0.2232  0.0832 -0.0073
    1DIPC   NC324937   5.942   2.023   2.918 -0.1178  0.0896 -0.3631
    1DIPC   PO424938   5.708   1.662   3.172 -0.2608 -0.3957 -0.0738
    1DIPC   GL124939   5.786   1.513   3.587 -0.0401 -0.2849  0.0865
    1DIPC   GL224940   5.667   1.256   3.729 -0.2359 -0.0786  0.1393
    1DIPC   C1A24941   5.625   1.703   3.959  0.1708 -0.0406  0.1683
    1DIPC   D2A24942   5.605   1.692   4.424  0.0978 -0.1255 -0.0811
    1DIPC   D3A24943   5.772   2.018   4.684 -0.0824 -0.0197 -0.1775
    1DIPC   C4A24944   6.143   2.075   4.874  0.1296 -0.2874 -0.1810
    1DIPC   C1B24945   5.597   1.208   4.124 -0.2311 -0.2308  0.1198
    1DIPC   D2B24946   5.321   0.994   4.452  0.0926 -0.0054 -0.0978
    1DIPC   D3B24947   5.534   0.548   4.207 -0.1025  0.2271 -0.1525
    1DIPC   C4B24948   5.427   0.113   4.302  0.0544 -0.0353 -0.1654
    1DIPC   NC324949  26.844  23.131   3.062 -0.1152  0.3184 -0.3325
    1DIPC   PO424950  26.995  23.044   3.465  0.5257  0.0359 -0.0680
    1DIPC   GL124951  27.223  22.968   4.010 -0.1604  0.0404 -0.4323
    1DIPC   GL224952  27.479  22.749   4.066  0.1504  0.0639  0.0306
    1DIPC   C1A24953  27.254  23.034   4.448  0.1956 -0.2411 -0.0977
    1DIPC   D2A24954  27.389  23.314   4.884  0.3554 -0.1335 -0.1154
    1DIPC   D3A24955  27.887  23.393   4.875 -0.1901 -0.4163 -0.1856
    1DIPC   C4A24956  28.202  23.168   4.657  0.1939 -0.0484  0.1686
    1DIPC   C1B24957  27.328  22.544   4.440 -0.4510  0.2351  0.0283
    1DIPC   D2B24958  27.572  22.295   4.897 -0.1435 -0.0393 -0.1585
    1DIPC   D3B24959  27.482  22.604   5.251  0.3713 -0.1007  0.1906
    1DIPC   C4B24960  27.611  22.722   5.635  0.1736  0.2681  0.0718
    1DIPC   NC324961  15.338   3.400   3.774 -0.0162  0.2682 -0.2541
    1DIPC   PO424962  15.641   3.602   3.951  0.2096 -0.1711 -0.0879
    1DIPC   GL124963  15.667   3.305   4.181 -0.0925  0.0676  0.1720
    1DIPC   GL224964  16.024   3.281   4.248  0.0351 -0.1068 -0.0324
    1DIPC   C1A24965  15.600   3.087   4.492 -0.1588 -0.1324  0.2830
    1DIPC   D2A24966  15.310   2.768   4.791 -0.1871  0.0144 -0.2113
    1DIPC   D3A24967  15.154   2.902   5.132  0.0039  0.2242 -0.0527
    1DIPC   C4A24968  14.714   3.014   5.071 -0.3911  0.2352 -0.4482
    1DIPC   C1B24969  16.015   3.160   4.721 -0.0570 -0.2411  0.1770
    1DIPC   D2B24970  15.657   3.107   4.961  0.4756  0.3862 -0.2315
    1DIPC   D3B24971  15.654   2.809   5.171  0.1838 -0.2561  0.0237
    1DIPC   C4B24972  15.943   2.525   5.250 -0.1010 -0.2095  0.0040
    1DIPC   NC324973   1.289  26.100   2.728  0.1163 -0.1149 -0.0293
    1DIPC   PO424974   1.477  26.275   3.102  0.0813  0.1044 -0.3117
    1DIPC   GL124975   1.549  26.575   3.299 -0.0111 -0.0132  0.0095
    1DIPC   GL224976   1.858  26.453   3.489  0.0700  0.1588  0.1859
    1DIPC   C1A24977   1.318  26.754   3.560 -0.2311  0.2550 -0.3426
    1DIPC   D2A24978   1.128  27.211   3.501 -0.3049  0.0352 -0.3191
    1DIPC   D3A24979   0.978  26.987   3.784  0.0549 -0.0319  0.1470
    1DIPC   C4A24980   0.592  26.804   3.769 -0.2008  0.1428 -0.4283
    1DIPC   C1B24981   2.364  26.434   3.772  0.0703 -0.1775 -0.0042
    1DIPC   D2B24982   2.678  26.801   3.932  0.0440 -0.0681  0.2189
    1DIPC   D3B24983   2.730  26.677   4.244  0.1260  0.2699 -0.1383
    1DIPC   C4B24984   2.457  26.440   4.349 -0.3126 -0.0278  0.1123
    1DIPC   NC324985   6.345  20.723   1.733  0.2677  0.0412 -0.2293
    1DIPC   PO424986   6.134  20.308   1.838  0.0419  0.1173 -0.1418
    1DIPC   GL124987   6.006  20.409   2.269 -0.2440  0.1910 -0.0889
    1DIPC   GL224988   5.641  20.430   2.236 -0.4117  0.0174 -0.3878
    1DIPC   C1A24989   6.252  20.384   2.657 -0.0148  0.0113 -0.0072
    1DIPC   D2A24990   6.236  20.293   3.203  0.0579 -0.1935  0.2352
    1DIPC   D3A24991   6.091  20.150   3.572  0.0409 -0.1843  0.3219
    1DIPC   C4A24992   6.281  19.939   3.889 -0.0782  0.0368  0.2019
    1DIPC   C1B24993   5.755  20.423   2.741  0.2373 -0.1206 -0.1132
    1DIPC   D2B24994   5.794  20.619   3.016  0.0504  0.0820  0.0461
    1DIPC   D3B24995   5.735  20.268   3.315 -0.1600 -0.0257  0.1262
    1DIPC   C4B24996   5.602  20.282   3.709  0.0568  0.1250  0.2719
    1DIPC   NC324997   2.926  26.793   2.928  0.4245 -0.1393  0.3165
    1DIPC   PO424998   3.285  26.766   2.822 -0.2200 -0.0611  0.0372
    1DIPC   GL124999   3.149  26.458   3.225  0.2114  0.2614 -0.0360
    1DIPC   GL225000   2.891  26.464   3.388 -0.1275  0.1592  0.0411
    1DIPC   C1A25001   3.473  26.439   3.570 -0.2110 -0.1727 -0.0352
    1DIPC   D2A25002   3.589  26.274   3.902 -0.1117  0.2097 -0.0885
    1DIPC   D3A25003   3.781  26.552   4.101 -0.1953 -0.0382  0.3376
    1DIPC   C4A25004   3.745  26.785   4.449  0.3728 -0.1259  0.1270
    1DIPC   C1B25005   3.004  26.394   3.792  0.0933  0.3707 -0.1661
    1DIPC   D2B25006   2.970  26.199   4.268  0.0429 -0.2702 -0.1831
    1DIPC   D3B25007   3.011  25.884   4.268 -0.0815  0.0274 -0.1420
    1DIPC   C4B25008   3.383  25.743   4.606  0.1599  0.1379  0.2572
    1DIPC   NC325009   3.015  24.186   2.506  0.0010 -0.1246 -0.0306
    1DIPC   PO425010   2.576  24.268   2.764 -0.0360 -0.2858  0.2381
    1DIPC   GL125011   2.830  24.163   3.117 -0.1513 -0.0845  0.2589
    1DIPC   GL225012   2.970  23.943   2.978  0.2198  0.1009 -0.2573
    1DIPC   C1A25013   2.941  24.431   3.519 -0.1006 -0.1433  0.0941
    1DIPC   D2A25014   2.856  24.587   3.824  0.6304 -0.1572  0.0082
    1DIPC   D3A25015   2.537  24.370   3.908 -0.2110  0.1240  0.1669
    1DIPC   C4A25016   2.386  24.691   3.627 -0.0215  0.0592 -0.0413
    1DIPC   C1B25017   2.905  23.907   3.530 -0.1699  0.3410  0.1687
    1DIPC   D2B25018   2.452  23.838   3.703 -0.2265 -0.3011 -0.1560
    1DIPC   D3B25019   2.169  23.578   3.528 -0.0810 -0.1618 -0.1270
    1DIPC   C4B25020   1.965  23.986   3.364  0.1004 -0.3185 -0.1051
    1DIPC   NC325021   5.218  20.153   2.189 -0.0691  0.0363  0.1583
    1DIPC   PO425022   5.161  20.612   1.967  0.0483 -0.1271  0.1829
    1DIPC   GL125023   5.019  20.895   2.393 -0.1875 -0.0633  0.3378
    1DIPC   GL225024   4.918  20.760   2.733 -0.3932 -0.1371 -0.0491
    1DIPC   C1A25025   5.135  21.161   2.810 -0.1638 -0.3243 -0.3011
    1DIPC   D2A25026   5.011  20.990   3.267  0.1489  0.1744  0.1044
    1DIPC   D3A25027   4.813  21.192   3.556  0.1241  0.2190 -0.0041
    1DIPC   C4A25028   4.821  21.014   3.990  0.1958  0.0720 -0.0824
    1DIPC   C1B25029   4.753  20.552   3.170 -0.1592  0.0647 -0.3752
    1DIPC   D2B25030   4.789  20.588   3.636 -0.0779  0.0208 -0.0535
    1DIPC   D3B25031   4.962  20.189   3.748  0.0740  0.1353 -0.0368
    1DIPC   C4B25032   4.670  20.090   3.939 -0.1070  0.2739 -0.0252
    1DIPC   NC325033   0.796   2.146   2.846 -0.0214  0.3840 -0.2525
    1DIPC   PO425034   1.219   2.399   2.980  0.1878  0.1456  0.2481
    1DIPC   GL125035   1.300   2.488   3.440 -0.3526 -0.1938  0.4784
    1DIPC   GL225036   1.611   2.598   3.709 -0.0777  0.1099  0.0596
    1DIPC   C1A25037   1.110   2.857   3.697  0.1055 -0.0181 -0.1440
    1DIPC   D2A25038   0.945   3.135   3.986  0.0919  0.0311 -0.0944
    1DIPC   D3A25039   1.220   3.540   3.875  0.0137 -0.2657  0.0461
    1DIPC   C4A25040   1.249   3.969   3.924 -0.0051 -0.4292  0.0042
    1DIPC   C1B25041   1.314   2.424   4.111  0.1744  0.0779 -0.2020
    1DIPC   D2B25042   0.926   2.308   4.394 -0.0052  0.4301 -0.1201
    1DIPC   D3B25043   0.623   2.020   4.172  0.0697 -0.1009 -0.3644
    1DIPC   C4B25044   0.266   1.990   4.266  0.1346  0.0741 -0.2246
    1DIPC   NC325045   2.858  13.604   2.827  0.3475 -0.0843  0.4844
    1DIPC   PO425046   2.701  14.025   2.858 -0.1350 -0.1112  0.1189
    1DIPC   GL125047   2.639  14.055   3.276  0.3850 -0.0950 -0.1905
    1DIPC   GL225048   2.545  13.762   3.250 -0.1011 -0.0496 -0.2360
    1DIPC   C1A25049   2.425  14.332   3.513 -0.0299 -0.0065  0.3164
    1DIPC   D2A25050   2.637  14.472   3.952  0.2497 -0.0023 -0.1388
    1DIPC   D3A25051   2.242  14.437   4.196  0.1576  0.2955  0.1429
    1DIPC   C4A25052   1.905  14.099   4.052  0.1243  0.1467  0.0663
    1DIPC   C1B25053   2.749  13.488   3.514  0.1859 -0.0293 -0.1222
    1DIPC   D2B25054   3.088  13.322   3.857  0.2127  0.1365 -0.0841
    1DIPC   D3B25055   2.864  13.016   4.186  0.0302 -0.0566 -0.0895
    1DIPC   C4B25056   2.991  12.710   4.466  0.3443  0.1875 -0.0414
    1DIPC   NC325057  23.509  13.791   2.197 -0.0237 -0.1207 -0.1585
    1DIPC   PO425058  23.762  13.449   2.328  0.0637  0.0949 -0.2672
    1DIPC   GL125059  23.776  13.720   2.614  0.4040  0.0590 -0.0701
    1DIPC   GL225060  23.913  14.036   2.698 -0.0343  0.0433  0.0731
    1DIPC   C1A25061  24.015  13.644   2.980 -0.0124  0.3352  0.0718
    1DIPC   D2A25062  24.124  13.708   3.440 -0.1770  0.1770 -0.3052
    1DIPC   D3A25063  24.588  13.827   3.503  0.1241  0.0499  0.0559
    1DIPC   C4A25064  24.696  14.077   3.136 -0.1505  0.4843  0.2200
    1DIPC   C1B25065  24.114  14.238   3.032  0.0178  0.0486 -0.0763
    1DIPC   D2B25066  24.267  14.341   3.403 -0.0211  0.0142  0.0381
    1DIPC   D3B25067  24.219  14.041   3.789 -0.1421 -0.0848 -0.0324
    1DIPC   C4B25068  24.257  13.566   3.877 -0.2788  0.2060 -0.0200
    1DIPC   NC325069  18.641  24.030   3.017 -0.3610 -0.1719 -0.0096
    1DIPC   PO425070  18.872  24.427   3.016 -0.2300  0.3706 -0.1974
    1DIPC   GL125071  18.774  24.334   3.464  0.0296 -0.2410  0.1802
    1DIPC   GL225072  18.758  24.628   3.524  0.0251  0.0795  0.0279
    1DIPC   C1A25073  18.756  23.959   3.710 -0.2271 -0.1385  0.2552
    1DIPC   D2A25074  18.404  23.674   3.876  0.1802 -0.2097  0.1445
    1DIPC   D3A25075  18.301  23.445   4.277 -0.0194  0.1018 -0.1317
    1DIPC   C4A25076  17.940  23.500   4.376  0.0689  0.0329 -0.0681
    1DIPC   C1B25077  18.464  24.759   3.821  0.0814  0.0385  0.1625
    1DIPC   D2B25078  18.149  25.080   3.896  0.2633 -0.3067  0.2805
    1DIPC   D3B25079  18.238  24.934   4.371  0.3643 -0.2490  0.1848
    1DIPC   C4B25080  18.491  24.580   4.300 -0.1881 -0.0060 -0.2425
    1DIPC   NC325081  19.018   2.422   2.752 -0.2601  0.0035  0.0518
    1DIPC   PO425082  18.805   2.698   2.840  0.2630  0.0120 -0.2471
    1DIPC   GL125083  18.756   2.477   3.218 -0.5306  0.0688 -0.1649
    1DIPC   GL225084  18.827   2.725   3.374  0.2764 -0.3414 -0.1742
    1DIPC   C1A25085  18.718   2.326   3.670 -0.1881  0.0807  0.0882
    1DIPC   D2A25086  19.064   2.254   3.996  0.0210  0.0505 -0.1928
    1DIPC   D3A25087  19.163   2.607   4.181 -0.0691 -0.0451  0.1686
    1DIPC   C4A25088  19.519   2.602   4.514  0.2368 -0.2796 -0.3401
    1DIPC   C1B25089  18.761   2.902   3.768  0.1234 -0.2036 -0.0318
    1DIPC   D2B25090  18.782   3.056   4.161  0.0819 -0.0971 -0.1738
    1DIPC   D3B25091  18.715   2.628   4.354  0.2533  0.0810 -0.2968
    1DIPC   C4B25092  18.448   2.362   4.060  0.0503 -0.0680  0.0320
    1DIPC   NC325093   5.844  22.043   1.902  0.1344 -0.1490  0.0691
    1DIPC   PO425094   5.860  22.231   2.385  0.0017 -0.1234 -0.2158
    1DIPC   GL125095   5.874  21.924   2.774  0.2833  0.0181  0.0076
    1DIPC   GL225096   6.143  21.774   2.794 -0.0721 -0.2465  0.2670
    1DIPC   C1A25097   5.818  21.475   3.061  0.2451 -0.0189  0.1140
    1DIPC   D2A25098   5.766  21.114   3.356 -0.0538  0.2456 -0.2336
    1DIPC   D3A25099   5.819  21.215   3.794  0.1801 -0.4646  0.0596
    1DIPC   C4A25100   5.977  21.565   4.148 -0.2971  0.0600 -0.0862
    1DIPC   C1B25101   6.404  21.552   3.083 -0.1985  0.0895  0.0825
    1DIPC   D2B25102   6.612  21.133   3.207  0.0061  0.1534  0.1062
    1DIPC   D3B25103   6.817  20.883   3.567  0.0830 -0.0533 -0.0889
    1DIPC   C4B25104   7.207  20.805   3.627  0.0679 -0.0950  0.1091
    1DIPC   NC325105  19.453   4.027   2.122 -0.1217  0.3105  0.0986
    1DIPC   PO425106  19.613   3.945   2.548  0.0947 -0.1864  0.0208
    1DIPC   GL125107  19.794   3.970   3.066 -0.1039 -0.1524  0.1153
    1DIPC   GL225108  19.533   3.997   3.341  0.0123 -0.2049  0.1274
    1DIPC   C1A25109  20.008   3.874   3.423 -0.1182  0.2930 -0.0199
    1DIPC   D2A25110  20.251   3.583   3.667 -0.0180 -0.3980  0.0793
    1DIPC   D3A25111  20.543   3.962   3.675 -0.2205  0.0779 -0.3102
    1DIPC   C4A25112  20.558   4.385   3.566  0.1019  0.1948  0.0420
    1DIPC   C1B25113  19.557   3.919   3.768  0.0043 -0.0646  0.2117
    1DIPC   D2B25114  19.857   3.615   3.938  0.0954  0.1888 -0.0684
    1DIPC   D3B25115  20.000   3.508   4.350  0.0204 -0.1562 -0.0962
    1DIPC   C4B25116  20.181   3.253   4.665  0.1277  0.2891  0.0038
    1DIPC   NC325117  17.937  24.745   3.267  0.0406 -0.3933  0.0663
    1DIPC   PO425118  17.414  24.757   3.222  0.2339 -0.1570 -0.0486
    1DIPC   GL125119  17.321  24.804   3.714  0.0672  0.0463  0.0988
    1DIPC   GL225120  17.392  25.076   3.924 -0.1709  0.0144  0.0767
    1DIPC   C1A25121  17.390  24.496   4.098  0.3438 -0.1614 -0.0477
    1DIPC   D2A25122  17.591  24.467   4.493 -0.1512 -0.0151  0.0732
    1DIPC   D3A25123  17.296  24.891   4.532  0.2206 -0.0943 -0.1005
    1DIPC   C4A25124  17.018  25.036   4.723 -0.2162 -0.0264 -0.0879
    1DIPC   C1B25125  17.667  25.033   4.315  0.1407  0.1789  0.0811
    1DIPC   D2B25126  17.780  24.864   4.632  0.2149  0.2505  0.0856
    1DIPC   D3B25127  17.560  25.275   4.773  0.0612 -0.0473 -0.0368
    1DIPC   C4B25128  17.626  25.527   5.046 -0.1357  0.2482  0.0708
    1DIPC   NC325129  17.279   0.469   3.418  0.1737  0.2483 -0.0867
    1DIPC   PO425130  16.910   0.613   3.323  0.3099  0.0174  0.1515
    1DIPC   GL125131  16.853   0.637   3.693  0.0484  0.0513  0.0920
    1DIPC   GL225132  16.682   0.421   3.819 -0.0228  0.0345  0.0392
    1DIPC   C1A25133  17.191   0.538   4.047  0.1834 -0.1806 -0.0295
    1DIPC   D2A25134  17.459   0.442   4.374 -0.0637  0.0038 -0.0713
    1DIPC   D3A25135  17.221   0.613   4.722  0.2657  0.1641 -0.1302
    1DIPC   C4A25136  17.039   0.348   5.094  0.0577  0.1208  0.0679
    1DIPC   C1B25137  16.697   0.662   4.153 -0.1524  0.4385 -0.3067
    1DIPC   D2B25138  16.822   0.941   4.637 -0.0931 -0.0053 -0.2411
    1DIPC   D3B25139  16.881   0.824   5.045 -0.3305 -0.0510  0.0997
    1DIPC   C4B25140  17.200   0.956   5.282 -0.1763 -0.2609  0.1143
    1DIPC   NC325141  19.546  26.887   3.627  0.3255 -0.1439  0.0048
    1DIPC   PO425142  19.884  27.104   3.741 -0.0139  0.1076 -0.1270
    1DIPC   GL125143  20.045  27.089   4.099  0.0524  0.5610 -0.2167
    1DIPC   GL225144  19.876  27.355   4.284 -0.0485  0.1075  0.3305
    1DIPC   C1A25145  20.152  26.983   4.568  0.0066  0.1169 -0.0326
    1DIPC   D2A25146  20.424  26.643   4.755 -0.4866  0.0220 -0.2178
    1DIPC   D3A25147  20.744  26.355   4.939  0.0937 -0.1173 -0.1079
    1DIPC   C4A25148  20.988  26.209   5.352  0.2063  0.2670 -0.4282
    1DIPC   C1B25149  20.208  27.690   4.483 -0.1718  0.2501 -0.2698
    1DIPC   D2B25150  20.614  27.588   4.750  0.0701 -0.0015  0.2112
    1DIPC   D3B25151  20.270  27.535   5.064  0.2912 -0.3728  0.0894
    1DIPC   C4B25152  20.249  27.361   5.509 -0.0164  0.0958  0.4598
    1DIPC   NC325153  10.273  22.207   2.192  0.2348 -0.1527 -0.1053
    1DIPC   PO425154   9.886  21.947   2.354  0.1105 -0.0837 -0.0990
    1DIPC   GL125155  10.005  21.590   2.591  0.0461  0.0749 -0.0899
    1DIPC   GL225156   9.727  21.361   2.688  0.0053  0.1966  0.0470
    1DIPC   C1A25157  10.283  21.573   2.895  0.1298 -0.1906 -0.0979
    1DIPC   D2A25158  10.454  21.782   3.211 -0.0628 -0.1745 -0.2157
    1DIPC   D3A25159  10.034  21.596   3.449  0.0052 -0.1513 -0.0151
    1DIPC   C4A25160   9.757  21.707   3.866  0.0777  0.0656 -0.0876
    1DIPC   C1B25161   9.674  21.604   2.981 -0.0552  0.2423 -0.0885
    1DIPC   D2B25162   9.546  21.866   3.401  0.1942 -0.1626  0.2309
    1DIPC   D3B25163   9.278  21.776   3.723 -0.1139 -0.1090  0.0161
    1DIPC   C4B25164   9.273  21.915   4.110  0.0951  0.0234 -0.0510
    1DIPC   NC325165  28.727  22.697   2.608  0.0189  0.0328 -0.1464
    1DIPC   PO425166  28.517  22.961   2.910  0.3066  0.2194 -0.1377
    1DIPC   GL125167  28.693  22.685   3.102  0.1245  0.0933 -0.0499
    1DIPC   GL225168  28.675  22.769   3.405 -0.1999 -0.0605 -0.1478
    1DIPC   C1A25169  28.470  22.304   3.371 -0.1133 -0.2150  0.4925
    1DIPC   D2A25170  28.317  22.033   3.850  0.2337 -0.4309 -0.2618
    1DIPC   D3A25171  28.609  22.006   4.190  0.1475  0.1914 -0.0299
    1DIPC   C4A25172  28.846  22.187   4.347  0.1478  0.2136 -0.0028
    1DIPC   C1B25173  28.261  22.691   3.670 -0.3874  0.2389 -0.0354
    1DIPC   D2B25174  27.951  22.990   3.819  0.2657 -0.0787 -0.2934
    1DIPC   D3B25175  28.279  23.169   4.137  0.1380 -0.3671  0.0468
    1DIPC   C4B25176  28.645  23.397   4.119  0.1669  0.2703  0.0692
    1DIPC   NC325177  24.351   2.179   2.763  0.1556  0.0222 -0.3271
    1DIPC   PO425178  24.718   2.558   2.841  0.3850 -0.1160  0.2374
    1DIPC   GL125179  24.671   2.289   3.221 -0.0804 -0.0319  0.3901
    1DIPC   GL225180  24.821   2.022   3.156  0.1860 -0.0207 -0.0642
    1DIPC   C1A25181  24.543   2.466   3.723 -0.0997  0.2248  0.4712
    1DIPC   D2A25182  24.572   2.902   4.033  0.0579  0.5163 -0.0691
    1DIPC   D3A25183  24.912   2.768   3.831 -0.0340  0.1790  0.0981
    1DIPC   C4A25184  25.096   2.457   3.812 -0.2854  0.0957  0.2038
    1DIPC   C1B25185  24.742   2.059   3.619 -0.2057  0.3807 -0.4351
    1DIPC   D2B25186  24.986   1.772   3.841 -0.1429 -0.1974  0.0857
    1DIPC   D3B25187  24.741   2.031   4.124 -0.2242 -0.0570  0.0400
    1DIPC   C4B25188  24.800   2.503   4.280  0.4312  0.0272 -0.2554
    1DIPC   NC325189   3.858  14.095   2.969  0.0107 -0.1478  0.0670
    1DIPC   PO425190   4.101  13.754   2.949  0.3012  0.0924  0.0760
    1DIPC   GL125191   3.959  13.779   3.404 -0.2054  0.1533  0.2924
    1DIPC   GL225192   3.667  13.855   3.357 -0.4058 -0.0052 -0.1867
    1DIPC   C1A25193   4.071  14.003   3.782  0.0892  0.0630  0.0155
    1DIPC   D2A25194   4.321  14.307   4.008  0.0830  0.0023  0.0543
    1DIPC   D3A25195   4.155  14.652   4.279 -0.2599 -0.1630  0.1337
    1DIPC   C4A25196   4.453  14.942   4.618 -0.0294  0.0030  0.0186
    1DIPC   C1B25197   3.577  13.785   3.823 -0.0169 -0.0684  0.2616
    1DIPC   D2B25198   3.422  14.050   4.224 -0.3539  0.1708  0.2932
    1DIPC   D3B25199   3.155  13.768   4.098  0.0003  0.4297 -0.2004
    1DIPC   C4B25200   2.927  13.446   4.379  0.2618 -0.0873 -0.0040
    1DIPC   NC325201   8.491  19.827   2.407  0.0578 -0.0280 -0.2582
    1DIPC   PO425202   8.846  19.762   2.723 -0.2390  0.2272  0.3859
    1DIPC   GL125203   9.165  19.782   2.979  0.0991 -0.1267 -0.1065
    1DIPC   GL225204   9.204  20.140   2.922  0.1260  0.1925  0.0816
    1DIPC   C1A25205   9.528  19.665   3.325  0.1532  0.1658  0.0626
    1DIPC   D2A25206   9.576  19.914   3.743 -0.2190  0.0088  0.0769
    1DIPC   D3A25207   9.939  19.833   3.527 -0.0488  0.0116  0.2999
    1DIPC   C4A25208  10.020  20.108   3.246  0.2050 -0.2081 -0.0215
    1DIPC   C1B25209   9.597  20.273   3.122 -0.1229 -0.0735 -0.0661
    1DIPC   D2B25210   9.738  20.371   3.537  0.2458  0.2486 -0.1865
    1DIPC   D3B25211   9.888  20.677   3.799  0.2810 -0.0269 -0.0940
    1DIPC   C4B25212   9.875  20.617   4.201 -0.0926  0.0855 -0.1424
    1DIPC   NC325213  23.759   5.536   2.579 -0.2678  0.0654  0.1361
    1DIPC   PO425214  23.278   5.472   2.774  0.0119 -0.0533  0.1050
    1DIPC   GL125215  23.518   5.515   3.105 -0.1446  0.0231  0.0857
    1DIPC   GL225216  23.857   5.369   3.185  0.1534 -0.0170  0.2378
    1DIPC   C1A25217  23.682   5.824   3.312  0.2520  0.1533  0.2985
    1DIPC   D2A25218  23.982   5.521   3.689  0.1683  0.0356  0.2710
    1DIPC   D3A25219  23.876   5.853   3.824 -0.1012 -0.1221  0.2251
    1DIPC   C4A25220  23.695   6.196   3.637 -0.2384  0.0090 -0.2103
    1DIPC   C1B25221  23.806   5.080   3.553 -0.0002 -0.0157 -0.1303
    1DIPC   D2B25222  23.631   4.974   3.954 -0.0232 -0.1718 -0.0992
    1DIPC   D3B25223  23.817   5.263   4.050 -0.2240  0.0484  0.0679
    1DIPC   C4B25224  23.711   5.683   4.231  0.1306  0.3576  0.1505
    1DIPC   NC325225  20.544   7.658   2.871 -0.0992  0.1756  0.0411
    1DIPC   PO425226  20.570   7.855   3.256 -0.1159 -0.0762 -0.0244
    1DIPC   GL125227  20.524   7.647   3.663 -0.1347  0.2306  0.2567
    1DIPC   GL225228  20.789   7.615   3.854  0.0187  0.0435  0.1040
    1DIPC   C1A25229  20.224   7.352   3.885  0.2357  0.1492  0.2022
    1DIPC   D2A25230  20.339   6.974   4.082 -0.0399  0.0879 -0.3891
    1DIPC   D3A25231  20.556   7.048   4.430  0.2607  0.0398  0.0263
    1DIPC   C4A25232  20.631   6.846   4.770 -0.3470 -0.0219  0.0818
    1DIPC   C1B25233  20.629   7.465   4.150  0.2242  0.1250  0.3066
    1DIPC   D2B25234  20.206   7.460   4.342 -0.4317  0.0230  0.1355
    1DIPC   D3B25235  20.244   7.774   4.123  0.1543  0.2748  0.0156
    1DIPC   C4B25236  20.590   8.042   4.149 -0.2479 -0.1870  0.0610
    1DIPC   NC325237  22.638  11.497   2.879 -0.1145  0.1558 -0.0651
    1DIPC   PO425238  22.938  11.487   2.601  0.0714  0.0571 -0.0551
    1DIPC   GL125239  23.181  11.486   2.925  0.2043 -0.0120  0.3818
    1DIPC   GL225240  23.037  11.403   3.129  0.4281  0.2090 -0.0106
    1DIPC   C1A25241  23.531  11.604   3.225 -0.4708 -0.1928  0.1341
    1DIPC   D2A25242  23.704  11.688   3.660  0.3200  0.0057  0.0506
    1DIPC   D3A25243  23.834  11.979   3.999 -0.4122  0.1489 -0.1458
    1DIPC   C4A25244  24.211  11.975   4.136  0.1050  0.0290  0.0105
    1DIPC   C1B25245  23.178  11.271   3.453 -0.1244  0.1953  0.1038
    1DIPC   D2B25246  23.508  10.959   3.405  0.0777 -0.1456 -0.0326
    1DIPC   D3B25247  23.503  11.051   3.805  0.0760  0.2959  0.1039
    1DIPC   C4B25248  23.866  10.986   4.043  0.0412 -0.2023 -0.2925
    1DIPC   NC325249  23.586  26.736   2.481  0.1593 -0.2402 -0.4228
    1DIPC   PO425250  23.340  26.486   2.855  0.0209 -0.0410 -0.0461
    1DIPC   GL125251  23.414  26.498   3.307  0.2450 -0.1241  0.1703
    1DIPC   GL225252  23.610  26.252   3.452  0.0277  0.0853 -0.3398
    1DIPC   C1A25253  23.233  26.655   3.641  0.0717  0.0757 -0.3328
    1DIPC   D2A25254  23.080  26.823   4.050  0.0234  0.1835  0.0333
    1DIPC   D3A25255  22.941  26.788   4.457 -0.1081 -0.1934  0.1830
    1DIPC   C4A25256  23.186  26.591   4.783 -0.0068  0.0142 -0.0741
    1DIPC   C1B25257  24.075  26.285   3.604  0.0980  0.0826 -0.1827
    1DIPC   D2B25258  24.536  26.240   3.657 -0.0052 -0.2573  0.3346
    1DIPC   D3B25259  24.558  26.558   4.034  0.1741 -0.1160 -0.0031
    1DIPC   C4B25260  24.478  26.400   4.413 -0.0148  0.0363  0.0337
    1DIPC   NC325261   6.213  28.622   3.473  0.0168 -0.1185 -0.3991
    1DIPC   PO425262   5.782  28.324   3.440 -0.0849  0.2599  0.2817
    1DIPC   GL125263   5.865  28.173   3.826  0.1565  0.0140  0.1518
    1DIPC   GL225264   6.094  28.493   4.007  0.0708  0.2375 -0.2338
    1DIPC   C1A25265   6.092  27.900   3.991  0.1592  0.1252 -0.3540
    1DIPC   D2A25266   6.306  27.770   4.363 -0.2509 -0.1214  0.1477
    1DIPC   D3A25267   6.172  27.745   4.778  0.0382  0.1664 -0.2896
    1DIPC   C4A25268   5.954  28.063   5.013 -0.0546  0.0541  0.1551
    1DIPC   C1B25269   5.976  28.539   4.392  0.1379 -0.2364  0.1150
    1DIPC   D2B25270   6.029  28.650   4.926 -0.0477  0.1667 -0.2347
    1DIPC   D3B25271   6.191  29.063   4.865 -0.0212  0.0476  0.0212
    1DIPC   C4B25272   6.413  29.435   5.066 -0.0626 -0.0880  0.3119
    1DIPC   NC325273  13.499  25.928   3.460  0.0684 -0.2023  0.0723
    1DIPC   PO425274  13.663  26.084   3.710  0.1204 -0.2479  0.1918
    1DIPC   GL125275  13.602  26.028   4.134 -0.0478 -0.0946 -0.1821
    1DIPC   GL225276  13.389  26.277   4.336  0.1951  0.2969 -0.0524
    1DIPC   C1A25277  13.872  26.165   4.463  0.1328 -0.0186 -0.0531
    1DIPC   D2A25278  14.087  26.072   4.889  0.0727 -0.1840  0.2129
    1DIPC   D3A25279  13.694  25.997   4.945  0.0710 -0.0789  0.1276
    1DIPC   C4A25280  13.538  25.635   5.090 -0.0852 -0.3080  0.0516
    1DIPC   C1B25281  13.610  26.472   4.743 -0.3548  0.1181  0.0992
    1DIPC   D2B25282  13.723  26.453   5.216 -0.2494 -0.0669  0.0782
    1DIPC   D3B25283  13.421  26.171   5.324 -0.0138  0.0771 -0.2055
    1DIPC   C4B25284  13.479  25.778   5.651 -0.0285 -0.1894  0.0075
    1DIPC   NC325285   5.288  17.481   1.913 -0.2035  0.2056 -0.2455
    1DIPC   PO425286   5.447  17.301   2.382  0.0322 -0.1699 -0.0499
    1DIPC   GL125287   5.594  17.084   2.678  0.3322  0.4012 -0.2770
    1DIPC   GL225288   5.391  17.123   2.919 -0.2441  0.0990  0.0672
    1DIPC   C1A25289   5.860  17.009   3.029 -0.0407 -0.0987 -0.2411
    1DIPC   D2A25290   5.678  17.118   3.450  0.2143  0.3897  0.2659
    1DIPC   D3A25291   5.733  17.217   3.796 -0.1973  0.0092  0.1865
    1DIPC   C4A25292   6.041  17.247   4.107  0.2060 -0.2109  0.0464
    1DIPC   C1B25293   4.846  17.097   3.047 -0.1067 -0.0904 -0.3079
    1DIPC   D2B25294   4.445  17.130   2.919 -0.3074  0.1907 -0.0676
    1DIPC   D3B25295   4.313  17.386   3.292  0.1745  0.2245  0.1828
    1DIPC   C4B25296   4.392  17.879   3.457 -0.0717  0.2552 -0.2813
    1DIPC   NC325297  22.760  13.213   2.251  0.1864  0.0024 -0.0703
    1DIPC   PO425298  22.941  13.651   2.280  0.2988 -0.2588  0.0101
    1DIPC   GL125299  23.073  13.887   2.672  0.0557 -0.1453  0.0711
    1DIPC   GL225300  23.352  13.996   2.680 -0.0982 -0.3230  0.0061
    1DIPC   C1A25301  23.023  14.162   3.005  0.1593  0.1248 -0.0967
    1DIPC   D2A25302  22.893  14.296   3.360  0.1576 -0.3151  0.1305
    1DIPC   D3A25303  22.950  14.149   3.740  0.2423  0.1096 -0.0064
    1DIPC   C4A25304  22.661  14.106   4.111  0.0485  0.0241  0.1104
    1DIPC   C1B25305  23.629  13.967   3.125 -0.1555  0.1462  0.1945
    1DIPC   D2B25306  23.657  13.522   3.357 -0.1882  0.1430 -0.1797
    1DIPC   D3B25307  23.751  13.482   3.799 -0.1401 -0.0445  0.3748
    1DIPC   C4B25308  23.430  13.567   4.193  0.1648  0.0430 -0.0217
    1DIPC   NC325309  23.934  28.716   2.472 -0.1681  0.0133  0.3653
    1DIPC   PO425310  23.589  28.849   2.701 -0.0747 -0.1330 -0.2523
    1DIPC   GL125311  23.804  28.958   2.997  0.2652  0.0169  0.1071
    1DIPC   GL225312  23.586  29.160   3.195  0.0855  0.2090 -0.1490
    1DIPC   C1A25313  24.023  28.901   3.290  0.2600  0.0877 -0.0140
    1DIPC   D2A25314  24.293  28.637   3.406 -0.1951  0.0205 -0.0817
    1DIPC   D3A25315  24.504  28.928   3.702 -0.1003 -0.0151  0.1217
    1DIPC   C4A25316  24.840  29.137   3.620 -0.1157 -0.0998 -0.0596
    1DIPC   C1B25317  23.443  28.973   3.610  0.1362  0.1398 -0.1795
    1DIPC   D2B25318  23.348  28.875   3.968 -0.3643 -0.0481  0.2019
    1DIPC   D3B25319  22.875  28.743   3.902  0.2109  0.1779  0.0334
    1DIPC   C4B25320  22.817  28.387   3.727 -0.0754  0.0714 -0.1643
    1DIPC   NC325321   7.004  26.156   3.474  0.0286 -0.0243 -0.1584
    1DIPC   PO425322   6.846  26.509   3.316 -0.2359 -0.0805 -0.0427
    1DIPC   GL125323   6.823  26.578   3.852  0.2571 -0.0452  0.0148
    1DIPC   GL225324   7.087  26.463   3.928  0.1217 -0.1578 -0.2356
    1DIPC   C1A25325   6.756  26.693   4.246  0.0191 -0.2008  0.1317
    1DIPC   D2A25326   6.969  26.794   4.539 -0.0685 -0.0973  0.1492
    1DIPC   D3A25327   7.397  26.905   4.542  0.0465  0.0244  0.1188
    1DIPC   C4A25328   7.616  27.175   4.765 -0.0168 -0.4879  0.2012
    1DIPC   C1B25329   7.059  26.228   4.373 -0.0432 -0.0066  0.0515
    1DIPC   D2B25330   7.211  25.973   4.701  0.1558 -0.1873 -0.0450
    1DIPC   D3B25331   7.661  25.777   4.576  0.1357 -0.0874  0.3409
    1DIPC   C4B25332   7.730  25.346   4.615  0.1241 -0.0026  0.1014
    1DIPC   NC325333   4.917  18.487   2.710 -0.2581  0.2223  0.0987
    1DIPC   PO425334   5.189  18.050   2.604 -0.2343  0.0825  0.1117
    1DIPC   GL125335   5.516  18.084   2.869  0.1921 -0.1252 -0.2739
    1DIPC   GL225336   5.844  18.343   2.930 -0.0012 -0.2732 -0.1628
    1DIPC   C1A25337   5.726  18.014   3.262 -0.1363 -0.1377 -0.0671
    1DIPC   D2A25338   5.958  18.213   3.619 -0.1292  0.0238 -0.1402
    1DIPC   D3A25339   6.337  18.426   3.667 -0.2156 -0.0041 -0.4013
    1DIPC   C4A25340   6.404  18.826   3.703 -0.2382 -0.1928 -0.3041
    1DIPC   C1B25341   5.945  18.536   3.255  0.1897 -0.3423  0.1251
    1DIPC   D2B25342   5.795  18.706   3.671 -0.0606  0.1197 -0.2758
    1DIPC   D3B25343   5.702  19.130   3.689 -0.1090 -0.2366  0.0078
    1DIPC   C4B25344   5.670  19.335   3.356  0.2746 -0.0652 -0.0136
    1DIPC   NC325345   0.018  18.479   2.790 -0.1468  0.0875 -0.2380
    1DIPC   PO425346  -0.115  18.920   2.659  0.1270 -0.0223 -0.0325
    1DIPC   GL125347  -0.122  19.138   3.004 -0.1676 -0.2949  0.1046
    1DIPC   GL225348  -0.273  18.970   3.197  0.1695 -0.2026 -0.1385
    1DIPC   C1A25349  -0.257  19.508   3.140  0.1040 -0.3582  0.0472
    1DIPC   D2A25350  -0.224  19.816   3.350  0.0674  0.1625  0.2024
    1DIPC   D3A25351  -0.375  19.537   3.653 -0.0454 -0.1417 -0.0105
    1DIPC   C4A25352  -0.668  19.438   3.854 -0.1301  0.1291  0.0406
    1DIPC   C1B25353  -0.234  18.997   3.716  0.1956  0.3968  0.1797
    1DIPC   D2B25354  -0.507  18.981   3.956  0.1327 -0.1650 -0.0333
    1DIPC   D3B25355  -0.899  18.933   3.917 -0.1742  0.5992  0.0539
    1DIPC   C4B25356  -1.259  19.208   4.125  0.1006  0.2034 -0.0877
    1DIPC   NC325357  10.999  28.791   4.022  0.0436  0.0026 -0.0033
    1DIPC   PO425358  11.205  29.191   4.096  0.4569 -0.1164  0.0895
    1DIPC   GL125359  10.977  29.429   4.520  0.1647 -0.2413  0.1987
    1DIPC   GL225360  10.763  29.102   4.677  0.2830  0.1687  0.1467
    1DIPC   C1A25361  10.830  29.554   4.880 -0.0864 -0.0358  0.2455
    1DIPC   D2A25362  11.104  29.577   5.338  0.0773 -0.1490 -0.1424
    1DIPC   D3A25363  11.231  30.020   5.417  0.1422  0.0609 -0.2107
    1DIPC   C4A25364  10.835  30.139   5.537 -0.3354 -0.3093  0.0443
    1DIPC   C1B25365  10.684  29.037   5.172 -0.2071 -0.0444  0.0895
    1DIPC   D2B25366  10.499  29.254   5.501  0.1052  0.2277 -0.2894
    1DIPC   D3B25367  10.246  28.964   5.752 -0.0162  0.0983 -0.4799
    1DIPC   C4B25368  10.445  28.500   5.571 -0.3283  0.1406  0.0466
    1DIPC   NC325369   4.128   9.844   2.894 -0.0973 -0.0998  0.1573
    1DIPC   PO425370   4.473   9.890   3.086 -0.0452  0.1176 -0.1146
    1DIPC   GL125371   4.268   9.531   3.375 -0.3436 -0.4699 -0.2880
    1DIPC   GL225372   3.948   9.521   3.406 -0.0147 -0.2559 -0.2836
    1DIPC   C1A25373   4.158   9.208   3.724  0.0446  0.3497  0.3136
    1DIPC   D2A25374   3.664   9.389   3.781 -0.2521  0.3756 -0.1691
    1DIPC   D3A25375   3.691   9.728   4.011 -0.0540 -0.2547 -0.0674
    1DIPC   C4A25376   3.727   9.687   4.450 -0.0507 -0.3409 -0.1162
    1DIPC   C1B25377   4.151   9.638   3.897  0.2735 -0.3393 -0.0413
    1DIPC   D2B25378   4.335   9.647   4.279  0.0546  0.2343  0.3384
    1DIPC   D3B25379   4.750   9.906   4.388  0.1755  0.4303  0.1060
    1DIPC   C4B25380   4.981  10.258   4.155 -0.0402 -0.0683  0.1711
    1DIPC   NC325381  25.025  10.737   2.627  0.3737  0.2764 -0.0417
    1DIPC   PO425382  24.998  11.076   2.390 -0.0861  0.0417  0.1272
    1DIPC   GL125383  25.002  11.213   2.867  0.0641  0.2953 -0.2778
    1DIPC   GL225384  25.008  10.952   3.157  0.0826 -0.0636  0.3349
    1DIPC   C1A25385  24.875  11.385   3.252 -0.0161  0.2038  0.1492
    1DIPC   D2A25386  24.676  11.483   3.724  0.0051  0.0057 -0.3029
    1DIPC   D3A25387  24.709  11.864   3.781 -0.0728 -0.0044  0.1800
    1DIPC   C4A25388  24.796  11.994   4.162  0.0734 -0.1102 -0.0186
    1DIPC   C1B25389  24.897  10.916   3.580  0.1951  0.0616  0.1583
    1DIPC   D2B25390  24.705  10.742   3.951  0.1528 -0.1126 -0.0664
    1DIPC   D3B25391  25.029  10.920   4.165  0.2700 -0.0279 -0.2429
    1DIPC   C4B25392  25.518  11.054   4.238  0.0451  0.1594 -0.0129
    1DIPC   NC325393  20.726   8.503   3.040  0.2706  0.6274 -0.4292
    1DIPC   PO425394  20.912   8.721   3.418 -0.1129 -0.0570 -0.2405
    1DIPC   GL125395  20.934   8.622   3.858 -0.0678 -0.0711 -0.0630
    1DIPC   GL225396  20.960   8.373   4.068  0.3286 -0.0836  0.2322
    1DIPC   C1A25397  21.316   8.853   4.036 -0.1739  0.1827 -0.6609
    1DIPC   D2A25398  21.607   8.587   4.191 -0.1481 -0.0605 -0.0590
    1DIPC   D3A25399  21.729   8.596   4.622 -0.0631 -0.3268 -0.0546
    1DIPC   C4A25400  22.120   8.681   4.822  0.0707  0.0069  0.3294
    1DIPC   C1B25401  20.579   8.465   4.409  0.0389  0.1189 -0.0410
    1DIPC   D2B25402  20.182   8.157   4.461 -0.1334  0.2501 -0.2771
    1DIPC   D3B25403  19.865   8.322   4.624  0.4304 -0.1182  0.0626
    1DIPC   C4B25404  19.938   8.667   4.803  0.1784  0.0105 -0.3406
    1DIPC   NC325405  12.159   2.674   4.031 -0.1405  0.2185  0.1331
    1DIPC   PO425406  12.513   2.898   4.118 -0.0488 -0.1243  0.0221
    1DIPC   GL125407  12.484   2.837   4.508 -0.3053 -0.1255  0.0024
    1DIPC   GL225408  12.387   2.516   4.501 -0.1930 -0.3099 -0.0584
    1DIPC   C1A25409  12.650   2.775   4.906  0.0995  0.1768 -0.1657
    1DIPC   D2A25410  13.011   2.699   5.250 -0.0212 -0.3000  0.0978
    1DIPC   D3A25411  12.573   2.601   5.389 -0.1277 -0.2516 -0.2558
    1DIPC   C4A25412  12.516   2.559   5.882  0.1144  0.0345  0.2089
    1DIPC   C1B25413  12.194   2.563   4.836 -0.1233  0.3066  0.0893
    1DIPC   D2B25414  12.206   2.293   5.245  0.0343 -0.1891 -0.0942
    1DIPC   D3B25415  12.189   2.264   5.715  0.0888 -0.0402  0.1599
    1DIPC   C4B25416  12.027   2.481   6.070 -0.2731 -0.2755  0.0841
    1DIPC   NC325417   4.880   7.306   2.898  0.0235  0.3655  0.0471
    1DIPC   PO425418   5.146   7.666   2.905 -0.2513 -0.1584  0.1063
    1DIPC   GL125419   5.349   7.754   3.245  0.2018 -0.0994  0.0032
    1DIPC   GL225420   5.670   7.657   3.290  0.0338  0.0851 -0.1099
    1DIPC   C1A25421   5.472   7.938   3.611 -0.0705  0.1102  0.1954
    1DIPC   D2A25422   5.595   7.957   3.966  0.0843 -0.5642  0.2608
    1DIPC   D3A25423   5.161   8.060   4.152  0.2305  0.2991  0.0253
    1DIPC   C4A25424   5.025   7.853   4.473  0.0546  0.2229  0.0517
    1DIPC   C1B25425   5.562   7.372   3.670  0.2799 -0.1438  0.0776
    1DIPC   D2B25426   5.332   7.132   3.964 -0.0489  0.2246  0.1352
    1DIPC   D3B25427   5.055   7.353   4.187  0.1979  0.4847 -0.0604
    1DIPC   C4B25428   4.765   7.359   4.457  0.0733 -0.1492  0.0326
    1DIPC   NC325429  25.831  24.402   2.465  0.1105  0.0568  0.0615
    1DIPC   PO425430  25.683  24.718   2.822 -0.3334 -0.2015  0.2096
    1DIPC   GL125431  25.513  24.947   3.215 -0.1538  0.1785 -0.2396
    1DIPC   GL225432  25.790  25.032   3.488 -0.1188 -0.1204  0.0646
    1DIPC   C1A25433  25.397  25.113   3.760 -0.1238 -0.0947 -0.2997
    1DIPC   D2A25434  25.358  25.171   4.178 -0.0621  0.1149  0.0357
    1DIPC   D3A25435  25.494  25.559   3.982 -0.0822 -0.1704  0.0052
    1DIPC   C4A25436  25.437  25.912   4.374  0.3071  0.1210  0.3464
    1DIPC   C1B25437  26.100  24.866   3.781 -0.0276  0.1290  0.3127
    1DIPC   D2B25438  26.395  24.693   4.092  0.0484 -0.1051 -0.2217
    1DIPC   D3B25439  26.768  24.832   4.047  0.1818 -0.0647 -0.0469
    1DIPC   C4B25440  26.884  25.236   3.893  0.0386  0.1317  0.0341
    1DIPC   NC325441   5.915   5.645   2.843 -0.1212 -0.1445 -0.0370
    1DIPC   PO425442   6.244   5.529   3.200  0.0135 -0.1091 -0.2122
    1DIPC   GL125443   6.316   5.648   3.653  0.0506  0.2650 -0.1347
    1DIPC   GL225444   6.298   5.998   3.669 -0.1450  0.0203  0.1080
    1DIPC   C1A25445   6.632   5.614   3.893 -0.3168  0.1338 -0.1790
    1DIPC   D2A25446   6.762   5.397   4.232 -0.2052 -0.2594  0.1910
    1DIPC   D3A25447   6.678   5.677   4.627  0.1619 -0.0718 -0.1117
    1DIPC   C4A25448   6.220   5.545   4.794  0.0046  0.1213  0.3185
    1DIPC   C1B25449   6.245   5.906   4.135  0.1534  0.0212 -0.1594
    1DIPC   D2B25450   6.275   5.543   4.209  0.1541  0.0884 -0.3341
    1DIPC   D3B25451   5.923   5.603   3.986  0.1655 -0.1274 -0.0560
    1DIPC   C4B25452   5.706   5.805   4.229  0.0339 -0.3947  0.1124
    1DIPC   NC325453  22.791  22.772   3.182  0.0506 -0.1596 -0.0488
    1DIPC   PO425454  22.936  22.516   3.557  0.0993  0.0177 -0.0288
    1DIPC   GL125455  23.170  22.619   3.953  0.1325 -0.0484  0.0064
    1DIPC   GL225456  23.366  22.837   3.937 -0.3102  0.1601 -0.1679
    1DIPC   C1A25457  23.191  22.661   4.497  0.0963  0.2046  0.1921
    1DIPC   D2A25458  22.952  22.371   4.815 -0.1196 -0.3009 -0.1425
    1DIPC   D3A25459  22.628  22.496   4.582  0.0491  0.1791 -0.0958
    1DIPC   C4A25460  22.439  22.811   4.445 -0.5081 -0.1077  0.1921
    1DIPC   C1B25461  23.412  23.030   4.274 -0.2210 -0.1188 -0.3499
    1DIPC   D2B25462  23.741  23.177   4.576 -0.0642  0.0955 -0.1046
    1DIPC   D3B25463  24.205  22.913   4.485 -0.0383 -0.1307  0.1875
    1DIPC   C4B25464  24.562  22.992   4.689  0.1601  0.1056 -0.0819
    1DIPC   NC325465   8.309   8.729   2.714 -0.0144  0.1037 -0.3227
    1DIPC   PO425466   8.298   8.306   2.980  0.0858  0.3020 -0.3278
    1DIPC   GL125467   8.272   8.237   3.350 -0.0538  0.1290  0.0395
    1DIPC   GL225468   8.474   7.968   3.534 -0.2306  0.2496 -0.0560
    1DIPC   C1A25469   7.976   8.298   3.591 -0.4474 -0.0679 -0.2298
    1DIPC   D2A25470   7.703   8.577   3.821  0.0141  0.1111  0.1032
    1DIPC   D3A25471   7.874   8.643   4.202 -0.0227 -0.3000  0.0863
    1DIPC   C4A25472   7.844   8.307   4.609  0.0443 -0.1189  0.3946
    1DIPC   C1B25473   8.449   8.160   3.832  0.0137 -0.2398 -0.0923
    1DIPC   D2B25474   8.220   8.295   4.111  0.0487  0.0552  0.1886
    1DIPC   D3B25475   8.382   8.060   4.459  0.2092  0.1560  0.3602
    1DIPC   C4B25476   8.552   8.186   4.811  0.0077  0.0467 -0.2107
    1DIPC   NC325477   7.863  25.215   2.332 -0.1067  0.0488 -0.2601
    1DIPC   PO425478   7.558  24.868   2.524  0.0269 -0.2378 -0.4670
    1DIPC   GL125479   7.446  25.106   2.864 -0.0138 -0.1236 -0.0263
    1DIPC   GL225480   7.143  25.175   2.816  0.0527 -0.0977 -0.1751
    1DIPC   C1A25481   7.406  25.444   3.195 -0.1496  0.2376 -0.2080
    1DIPC   D2A25482   7.355  25.298   3.621 -0.1260 -0.1403  0.3790
    1DIPC   D3A25483   7.830  25.177   3.554  0.0624  0.0180  0.2758
    1DIPC   C4A25484   8.066  25.499   3.804 -0.2667  0.0147 -0.2890
    1DIPC   C1B25485   7.199  24.985   3.284  0.1217 -0.3753  0.1817
    1DIPC   D2B25486   7.064  24.866   3.719 -0.0473 -0.0826  0.1798
    1DIPC   D3B25487   7.235  24.663   4.116 -0.0961  0.0053 -0.2726
    1DIPC   C4B25488   7.136  24.249   4.294 -0.0279  0.0837  0.2997
    1DIPC   NC325489  11.843  26.600   3.786 -0.0937  0.1207  0.1893
    1DIPC   PO425490  12.018  26.977   3.630  0.1017  0.2289  0.4178
    1DIPC   GL125491  11.985  26.948   4.065 -0.1584  0.0076 -0.1812
    1DIPC   GL225492  12.051  27.283   4.237  0.3171 -0.2686 -0.0745
    1DIPC   C1A25493  11.967  26.779   4.522  0.0045  0.0616 -0.2161
    1DIPC   D2A25494  11.957  26.873   4.980  0.1352 -0.1542  0.0422
    1DIPC   D3A25495  12.001  26.524   5.279  0.2014  0.2553  0.1095
    1DIPC   C4A25496  11.607  26.393   5.555 -0.0139 -0.0219 -0.0666
    1DIPC   C1B25497  12.269  27.348   4.638  0.0549  0.0629  0.0172
    1DIPC   D2B25498  12.477  27.279   5.093 -0.1093  0.2137  0.0456
    1DIPC   D3B25499  12.500  26.817   5.237 -0.0030 -0.2269  0.3351
    1DIPC   C4B25500  12.892  26.481   5.371  0.3119  0.0216  0.0925
    1DIPC   NC325501  19.258  28.334   2.918 -0.2924 -0.0931  0.3558
    1DIPC   PO425502  18.857  28.283   3.130 -0.6868 -0.1380 -0.0116
    1DIPC   GL125503  18.842  28.181   3.552 -0.3134 -0.0509  0.3054
    1DIPC   GL225504  18.629  27.992   3.642  0.2734  0.1094 -0.0832
    1DIPC   C1A25505  18.717  28.447   3.886  0.3202 -0.3738  0.0241
    1DIPC   D2A25506  18.599  28.890   4.105  0.0876 -0.1490 -0.2081
    1DIPC   D3A25507  18.305  28.723   3.955 -0.1057  0.4946  0.1441
    1DIPC   C4A25508  18.017  28.607   4.173 -0.0347 -0.1915 -0.0796
    1DIPC   C1B25509  18.727  27.938   4.047  0.1949 -0.2227  0.0125
    1DIPC   D2B25510  18.916  28.088   4.415 -0.1307  0.0942  0.0710
    1DIPC   D3B25511  18.627  28.091   4.810  0.0263  0.0677  0.4521
    1DIPC   C4B25512  18.392  27.634   4.959 -0.0279 -0.0427 -0.1939
    1DIPC   NC325513  29.111  13.327   2.971 -0.2617 -0.1590 -0.2116
    1DIPC   PO425514  29.528  13.352   2.820 -0.2476 -0.0555 -0.2552
    1DIPC   GL125515  29.645  13.751   3.032 -0.1619 -0.0310  0.0840
    1DIPC   GL225516  29.423  14.082   3.108 -0.1714  0.2027 -0.1905
    1DIPC   C1A25517  29.740  13.838   3.461 -0.0153 -0.0205  0.0745
    1DIPC   D2A25518  29.858  14.121   3.807 -0.2190  0.0794 -0.0821
    1DIPC   D3A25519  30.055  13.699   3.801 -0.0360 -0.0874  0.1011
    1DIPC   C4A25520  30.054  13.464   3.356  0.1224  0.1187 -0.3865
    1DIPC   C1B25521  29.118  13.907   3.419  0.0765  0.0207  0.1872
    1DIPC   D2B25522  28.739  13.899   3.743  0.0651 -0.1349 -0.0623
    1DIPC   D3B25523  28.774  14.311   3.729 -0.0579  0.0593 -0.1048
    1DIPC   C4B25524  29.015  14.398   3.350 -0.0837  0.3933 -0.0306
    1DIPC   NC325525  10.768  21.273   2.288 -0.2920  0.1718 -0.2258
    1DIPC   PO425526  11.160  21.273   2.559 -0.1201 -0.1114  0.4012
    1DIPC   GL125527  11.058  21.378   2.946 -0.1111  0.1698  0.0431
    1DIPC   GL225528  11.179  21.749   2.847 -0.1845  0.1823  0.3087
    1DIPC   C1A25529  11.176  21.502   3.301  0.0048 -0.1372 -0.0023
    1DIPC   D2A25530  11.180  21.361   3.740  0.0402  0.2548  0.0721
    1DIPC   D3A25531  10.814  21.444   3.977 -0.3372 -0.2563 -0.1325
    1DIPC   C4A25532  10.685  21.626   4.418  0.4793 -0.1874  0.2063
    1DIPC   C1B25533  11.538  21.567   3.001  0.0068  0.1714 -0.0178
    1DIPC   D2B25534  11.756  21.569   3.387 -0.1978 -0.2365 -0.0866
    1DIPC   D3B25535  11.572  21.137   3.446  0.2075  0.3510 -0.1476
    1DIPC   C4B25536  11.658  21.071   3.878 -0.0421  0.0283 -0.2696
    1CHOL   ROH25537  16.590  18.411   7.075  0.2085  0.0581  0.0767
    1CHOL    R125538  16.548  18.303   6.817  0.3522 -0.0589  0.1006
    1CHOL    R225539  16.358  18.403   6.642  0.1121 -0.4395  0.1298
    1CHOL    R325540  16.570  18.421   6.474  0.0449 -0.0553  0.0802
    1CHOL    R425541  16.341  18.365   6.299  0.1035 -0.4893  0.1362
    1CHOL    R525542  16.529  18.255   6.307  0.3155 -0.1448  0.1003
    1CHOL    C125543  16.531  18.361   5.941  0.0354 -0.1579  0.0932
    1CHOL    C225544  16.484  18.436   5.605  0.3302  0.1875  0.2983
    1CHOL   ROH25545  17.348   7.360   6.759  0.0009  0.2637 -0.1137
    1CHOL    R125546  17.503   7.343   6.523  0.0886  0.2171 -0.0544
    1CHOL    R225547  17.400   7.247   6.285  0.2323 -0.0250 -0.0266
    1CHOL    R325548  17.490   7.484   6.188  0.0826 -0.0195 -0.1553
    1CHOL    R425549  17.452   7.317   5.950  0.1341 -0.1469 -0.0676
    1CHOL    R525550  17.634   7.424   6.006  0.0825 -0.0204 -0.1517
    1CHOL    C125551  17.567   7.580   5.664 -0.0638 -0.2127 -0.2124
    1CHOL    C225552  17.348   7.601   5.351 -0.1301  0.0940  0.0745
    1CHOL   ROH25553  12.508  17.104   6.433 -0.2855 -0.0043 -0.1526
    1CHOL    R125554  12.674  17.033   6.215 -0.1924  0.1424 -0.1309
    1CHOL    R225555  12.688  16.775   6.117  0.2254  0.0972  0.0217
    1CHOL    R325556  12.628  16.897   5.881 -0.0142 -0.1384 -0.0444
    1CHOL    R425557  12.723  16.630   5.805  0.3171 -0.0690  0.1080
    1CHOL    R525558  12.798  16.820   5.730  0.0409 -0.0156 -0.0451
    1CHOL    C125559  12.687  16.660   5.402  0.1456 -0.3870  0.0962
    1CHOL    C225560  12.778  16.608   5.027 -0.0677 -0.1126 -0.3684
    1CHOL   ROH25561  14.450  26.050   5.858  0.1188 -0.0995 -0.0757
    1CHOL    R125562  14.189  25.945   5.891  0.0826  0.0258  0.0465
    1CHOL    R225563  14.102  25.719   5.757 -0.1354  0.1498 -0.0239
    1CHOL    R325564  14.042  25.633   6.008 -0.0063  0.0378 -0.0303
    1CHOL    R425565  13.871  25.473   5.832 -0.0681  0.0873 -0.0201
    1CHOL    R525566  13.806  25.592   6.003 -0.0051  0.0093  0.0616
    1CHOL    C125567  13.680  25.249   6.112  0.0924 -0.0541 -0.0239
    1CHOL    C225568  13.333  25.389   6.028 -0.2795  0.2788  0.3036
    1CHOL   ROH25569  19.350  10.162   6.485  0.0348 -0.0845 -0.0605
    1CHOL    R125570  19.301  10.238   6.217  0.1805  0.0443 -0.0541
    1CHOL    R225571  19.395  10.093   6.002  0.0283 -0.0390 -0.0786
    1CHOL    R325572  19.134  10.094   5.928  0.0354  0.3261 -0.1101
    1CHOL    R425573  19.280  10.024   5.683 -0.0462  0.1515 -0.0927
    1CHOL    R525574  19.135  10.185   5.706  0.1758  0.3434 -0.0953
    1CHOL    C125575  18.967   9.985   5.429 -0.0825  0.6052 -0.1305
    1CHOL    C225576  18.907   9.751   5.069  0.0918  0.0744  0.0552
    1CHOL   ROH25577  16.802   9.883   6.724 -0.2729  0.1514 -0.0203
    1CHOL    R125578  16.709   9.951   6.465  0.0003  0.2684 -0.0944
    1CHOL    R225579  16.878   9.980   6.249  0.1989 -0.0156  0.0050
    1CHOL    R325580  16.711   9.798   6.135 -0.0105  0.2201 -0.0695
    1CHOL    R425581  16.832   9.940   5.909  0.3110  0.0203 -0.0131
    1CHOL    R525582  16.619   9.912   5.946  0.2539  0.3358 -0.1249
    1CHOL    C125583  16.649   9.745   5.604  0.1797  0.2626 -0.0935
    1CHOL    C225584  16.763   9.911   5.328  0.0254  0.1299  0.1072
    1CHOL   ROH25585   1.006  16.661   4.187 -0.1871 -0.0307 -0.2894
    1CHOL    R125586   0.956  16.406   4.075 -0.1359 -0.0876 -0.1841
    1CHOL    R225587   1.014  16.171   4.208  0.0111 -0.0227 -0.1300
    1CHOL    R325588   0.752  16.116   4.159  0.0107 -0.1396 -0.0020
    1CHOL    R425589   0.900  15.899   4.028  0.0542  0.0291 -0.2357
    1CHOL    R525590   0.751  16.029   3.936 -0.0783  0.0051 -0.0586
    1CHOL    C125591   0.588  15.689   3.877  0.0789 -0.0504 -0.1771
    1CHOL    C225592   0.448  15.270   3.790  0.1100  0.1136  0.2266
    1CHOL   ROH25593  13.455  14.950   6.673 -0.0610 -0.4718  0.0491
    1CHOL    R125594  13.394  14.794   6.444 -0.1714 -0.1881 -0.1210
    1CHOL    R225595  13.232  14.886   6.240  0.0725  0.2370 -0.1437
    1CHOL    R325596  13.446  14.822   6.085  0.0713  0.0517 -0.0688
    1CHOL    R425597  13.215  14.789   5.909  0.1149  0.1528 -0.1209
    1CHOL    R525598  13.369  14.641   5.949  0.0005  0.0680 -0.0391
    1CHOL    C125599  13.405  14.672   5.571  0.1386 -0.0703 -0.0372
    1CHOL    C225600  13.345  14.607   5.200 -0.2300 -0.0338 -0.0462
    1CHOL   ROH25601  14.593  11.121   6.687  0.3378 -0.0732 -0.1413
    1CHOL    R125602  14.609  11.017   6.424  0.2166 -0.0685 -0.1517
    1CHOL    R225603  14.384  10.960   6.272  0.1433 -0.1190 -0.0311
    1CHOL    R325604  14.505  11.123   6.091  0.0085 -0.0886 -0.0938
    1CHOL    R425605  14.364  10.923   5.929  0.0427 -0.1667 -0.0197
    1CHOL    R525606  14.575  10.975   5.916  0.0129 -0.0760 -0.0998
    1CHOL    C125607  14.465  11.054   5.559 -0.1423 -0.1661 -0.0719
    1CHOL    C225608  14.287  11.012   5.257 -0.0921 -0.1581 -0.1794
    1CHOL   ROH25609  20.665  18.052   3.556  0.1489  0.0249  0.0480
    1CHOL    R125610  20.752  17.990   3.818  0.0916  0.0957  0.0831
    1CHOL    R225611  20.833  18.184   3.998 -0.0676  0.1545  0.0891
    1CHOL    R325612  20.645  18.070   4.157 -0.0624  0.0762  0.0412
    1CHOL    R425613  20.878  18.106   4.331 -0.0872  0.0988  0.0792
    1CHOL    R525614  20.769  17.920   4.297 -0.0401  0.0760  0.0261
    1CHOL    C125615  20.727  17.953   4.675 -0.0933 -0.0072  0.0285
    1CHOL    C225616  20.624  17.608   4.822 -0.0319 -0.0197  0.1714
    1CHOL   ROH25617   6.852  12.127   3.551  0.1202  0.0267 -0.1004
    1CHOL    R125618   6.774  12.217   3.808  0.0868 -0.0932 -0.0683
    1CHOL    R225619   6.955  12.256   4.014  0.0853 -0.0120 -0.0843
    1CHOL    R325620   6.845  12.504   4.020 -0.0964 -0.0917 -0.0066
    1CHOL    R425621   7.029  12.498   4.248  0.1675  0.0841 -0.2078
    1CHOL    R525622   6.818  12.551   4.254  0.1289 -0.0741  0.0190
    1CHOL    C125623   6.970  12.873   4.391  0.0448  0.0654 -0.2069
    1CHOL    C225624   7.186  13.147   4.429  0.0564  0.2298 -0.1681
    1CHOL   ROH25625  17.776  10.614   3.038  0.0484  0.0014 -0.1961
    1CHOL    R125626  17.591  10.723   3.223  0.0388 -0.2445 -0.0538
    1CHOL    R225627  17.615  10.688   3.496  0.3538 -0.1301 -0.0544
    1CHOL    R325628  17.601  10.960   3.498 -0.0775 -0.1462 -0.1366
    1CHOL    R425629  17.633  10.885   3.780  0.4172  0.0136 -0.1584
    1CHOL    R525630  17.477  11.011   3.696  0.1049 -0.2683  0.0037
    1CHOL    C125631  17.631  11.254   3.947  0.0495  0.0822 -0.2962
    1CHOL    C225632  17.650  11.390   4.331 -0.1642 -0.0104 -0.2219
    1CHOL   ROH25633  11.663  19.173   2.939 -0.0156 -0.0120  0.1085
    1CHOL    R125634  11.648  19.097   3.211 -0.0702  0.0347  0.1185
    1CHOL    R225635  11.871  19.026   3.358 -0.1065  0.0199  0.1626
    1CHOL    R325636  11.780  19.218   3.527 -0.0975  0.0619  0.1203
    1CHOL    R425637  11.891  19.011   3.703 -0.1507  0.0663  0.1675
    1CHOL    R525638  11.691  19.096   3.713 -0.1410  0.1016  0.1283
    1CHOL    C125639  11.817  19.183   4.063 -0.1679  0.1326  0.1306
    1CHOL    C225640  11.832  19.153   4.346  0.1233 -0.2368 -0.0418
    1CHOL   ROH25641  12.790   5.251   4.414 -0.0188 -0.2104 -0.1601
    1CHOL    R125642  12.604   5.200   4.620  0.0033 -0.2683 -0.1536
    1CHOL    R225643  12.463   4.963   4.639  0.1963 -0.3788 -0.0554
    1CHOL    R325644  12.567   4.959   4.890  0.1793 -0.1740 -0.0440
    1CHOL    R425645  12.377   4.736   4.885  0.2779 -0.2611  0.0830
    1CHOL    R525646  12.382   4.899   5.030  0.1960 -0.1663 -0.0197
    1CHOL    C125647  12.424   4.600   5.264  0.3096 -0.0003  0.1744
    1CHOL    C225648  12.279   4.256   5.313  0.3625  0.2002 -0.2659
    1CHOL   ROH25649  27.873  24.027   3.448 -0.0632  0.1553  0.0228
    1CHOL    R125650  27.919  24.185   3.678  0.1001  0.1098  0.0213
    1CHOL    R225651  27.798  24.133   3.920  0.0369  0.2433  0.0145
    1CHOL    R325652  28.054  24.133   4.012  0.0355 -0.0285  0.0276
    1CHOL    R425653  27.888  24.155   4.253  0.0389  0.2967  0.0114
    1CHOL    R525654  28.052  24.288   4.195  0.2117  0.0703 -0.0473
    1CHOL    C125655  28.181  24.167   4.533  0.0386  0.0723  0.0217
    1CHOL    C225656  28.093  24.458   4.792 -0.0581  0.1409  0.2717
    1CHOL   ROH25657  12.330  21.171   6.065  0.0709  0.0015  0.0672
    1CHOL    R125658  12.222  21.137   5.805 -0.1049  0.0344  0.1345
    1CHOL    R225659  12.370  21.037   5.595 -0.1870  0.2449 -0.0275
    1CHOL    R325660  12.164  20.860   5.577 -0.0634  0.0906  0.0553
    1CHOL    R425661  12.254  20.897   5.300 -0.3384  0.3241 -0.0068
    1CHOL    R525662  12.051  20.921   5.375 -0.2933  0.1192  0.1898
    1CHOL    C125663  11.994  20.650   5.112 -0.3105  0.2257  0.0831
    1CHOL    C225664  11.768  20.559   4.908 -0.1878  0.1489 -0.1588
    1CHOL   ROH25665  27.788  12.458   5.954  0.0623  0.0478  0.0439
    1CHOL    R125666  28.005  12.520   5.783  0.0420 -0.0293 -0.0106
    1CHOL    R225667  28.232  12.649   5.871  0.0418  0.0372 -0.1021
    1CHOL    R325668  28.358  12.434   5.761  0.0461 -0.0147  0.0043
    1CHOL    R425669  28.565  12.640   5.778  0.0315  0.0102 -0.1356
    1CHOL    R525670  28.507  12.528   5.600  0.0200 -0.0940 -0.0657
    1CHOL    C125671  28.876  12.433   5.621  0.0294 -0.0542 -0.0553
    1CHOL    C225672  29.090  12.224   5.361  0.0246  0.1755  0.4173
    1CHOL   ROH25673  20.990   9.125   3.851 -0.0907 -0.2271 -0.0629
    1CHOL    R125674  20.795   9.068   4.048  0.0147 -0.2900  0.0244
    1CHOL    R225675  20.843   8.898   4.261  0.2781 -0.0118  0.1946
    1CHOL    R325676  20.761   9.111   4.408  0.0135  0.0345 -0.0120
    1CHOL    R425677  20.749   8.885   4.593  0.1851  0.1747  0.1768
    1CHOL    R525678  20.588   9.024   4.548  0.0554 -0.0237  0.0047
    1CHOL    C125679  20.617   9.078   4.924 -0.1174  0.3266 -0.0275
    1CHOL    C225680  20.311   8.990   5.126  0.2345  0.2048 -0.0462
    1CHOL   ROH25681  19.104  10.869   3.655 -0.0109  0.0267  0.0105
    1CHOL    R125682  18.968  11.015   3.855  0.0045  0.1307 -0.0541
    1CHOL    R225683  18.915  10.911   4.106 -0.2840  0.1305 -0.1118
    1CHOL    R325684  19.041  11.137   4.190 -0.0985 -0.0213  0.0250
    1CHOL    R425685  18.894  11.041   4.425 -0.4386  0.1245 -0.1188
    1CHOL    R525686  18.884  11.241   4.338 -0.1230  0.1482 -0.1157
    1CHOL    C125687  19.001  11.328   4.691 -0.3543 -0.0216  0.0056
    1CHOL    C225688  19.129  11.343   5.101 -0.0135 -0.1578 -0.2104
    1CHOL   ROH25689  11.582  12.613   3.147  0.1010 -0.1613  0.1339
    1CHOL    R125690  11.550  12.840   3.313  0.0645 -0.0846  0.0236
    1CHOL    R225691  11.369  12.848   3.523 -0.0978  0.0689 -0.1149
    1CHOL    R325692  11.588  12.917   3.667 -0.1777  0.0302  0.0263
    1CHOL    R425693  11.370  12.915   3.862 -0.2947  0.0729 -0.1137
    1CHOL    R525694  11.509  13.078   3.824 -0.2433  0.0440 -0.0258
    1CHOL    C125695  11.578  13.019   4.194 -0.4844  0.0388  0.0195
    1CHOL    C225696  11.404  13.136   4.398  0.1137 -0.2566  0.1836
    1CHOL   ROH25697  18.813  18.194   7.030 -0.0006  0.1770 -0.2883
    1CHOL    R125698  18.648  18.066   6.840  0.0650 -0.0397 -0.2049
    1CHOL    R225699  18.478  18.206   6.671 -0.3057 -0.2576 -0.0407
    1CHOL    R325700  18.611  18.068   6.478 -0.2053  0.0253 -0.1765
    1CHOL    R425701  18.366  18.159   6.347 -0.3441 -0.1880 -0.0360
    1CHOL    R525702  18.439  17.954   6.356 -0.1003 -0.1007 -0.1951
    1CHOL    C125703  18.424  18.002   5.978 -0.2722  0.1180 -0.1608
    1CHOL    C225704  18.296  17.741   5.801 -0.0112 -0.3738  0.0071
    1CHOL   ROH25705   9.633  12.075   2.792 -0.0183  0.1735 -0.0981
    1CHOL    R125706   9.565  12.123   3.063  0.0303  0.1387 -0.0805
    1CHOL    R225707   9.547  11.921   3.250 -0.0164  0.1049 -0.1242
    1CHOL    R325708   9.723  12.076   3.387  0.0530  0.0160 -0.1087
    1CHOL    R425709   9.630  11.879   3.583  0.0530 -0.0266 -0.1559
    1CHOL    R525710   9.627  12.096   3.606  0.1096 -0.0346 -0.0796
    1CHOL    C125711   9.842  12.001   3.906  0.1585 -0.1867 -0.1598
    1CHOL    C225712   9.808  11.936   4.230  0.0971  0.0763  0.2787
    1CHOL   ROH25713  12.016  12.375   3.250 -0.3726 -0.1278  0.0386
    1CHOL    R125714  11.950  12.572   3.443 -0.2053 -0.0733  0.0405
    1CHOL    R225715  11.791  12.518   3.662 -0.1414  0.0279  0.1081
    1CHOL    R325716  12.003  12.620   3.800 -0.0415 -0.0496  0.0151
    1CHOL    R425717  11.788  12.600   3.998 -0.0165  0.1681  0.0768
    1CHOL    R525718  11.904  12.778   3.951  0.0894  0.0782 -0.0259
    1CHOL    C125719  11.984  12.744   4.323  0.1500  0.1771 -0.0287
    1CHOL    C225720  11.841  12.829   4.680  0.2029  0.3015  0.2671
    1CHOL   ROH25721  11.979  21.567   5.806 -0.0805  0.0379  0.0682
    1CHOL    R125722  12.165  21.564   5.592 -0.1004  0.0723  0.0497
    1CHOL    R225723  12.176  21.359   5.408 -0.0569  0.0561  0.0682
    1CHOL    R325724  12.150  21.562   5.229 -0.1367  0.0308  0.0517
    1CHOL    R425725  12.189  21.323   5.064  0.0216  0.0422  0.0728
    1CHOL    R525726  12.304  21.507   5.054 -0.0772  0.1039  0.0816
    1CHOL    C125727  12.172  21.492   4.696 -0.0075  0.0105  0.0600
    1CHOL    C225728  12.014  21.593   4.321 -0.0171 -0.1399 -0.1391
    1CHOL   ROH25729  16.787  19.405   3.661 -0.0915 -0.2899 -0.0698
    1CHOL    R125730  16.894  19.348   3.917  0.0077  0.0691 -0.0265
    1CHOL    R225731  16.879  19.526   4.128 -0.4731  0.1220 -0.0981
    1CHOL    R325732  16.766  19.315   4.256  0.0198 -0.1213 -0.0385
    1CHOL    R425733  16.919  19.455   4.464 -0.4191  0.4068 -0.0409
    1CHOL    R525734  16.933  19.243   4.412  0.1587  0.3981  0.0741
    1CHOL    C125735  16.835  19.215   4.780  0.0750  0.3444  0.0485
    1CHOL    C225736  16.811  19.210   5.164 -0.2561  0.2560 -0.0499
    1CHOL   ROH25737   5.075  10.270   5.986 -0.2446 -0.1008  0.0729
    1CHOL    R125738   4.973  10.224   5.726 -0.2975 -0.0723  0.0891
    1CHOL    R225739   4.713  10.288   5.655 -0.2404  0.1542  0.0841
    1CHOL    R325740   4.836  10.427   5.457 -0.1168 -0.0127  0.0404
    1CHOL    R425741   4.552  10.434   5.387 -0.1305  0.3017  0.0967
    1CHOL    R525742   4.716  10.369   5.259 -0.2264  0.0946  0.0721
    1CHOL    C125743   4.573  10.650   5.045  0.0494  0.2309  0.0631
    1CHOL    C225744   4.328  10.584   4.751  0.1746 -0.2098 -0.1520
    1CHOL   ROH25745  17.556  19.422   6.973 -0.1274 -0.0808  0.1734
    1CHOL    R125746  17.507  19.306   6.720 -0.0522 -0.0978  0.1661
    1CHOL    R225747  17.489  19.033   6.683 -0.1163 -0.0986  0.1929
    1CHOL    R325748  17.250  19.095   6.572 -0.0503 -0.0409  0.0819
    1CHOL    R425749  17.270  18.804   6.544 -0.1041 -0.0435  0.0828
    1CHOL    R525750  17.230  18.948   6.385  0.0031 -0.0300  0.0686
    1CHOL    C125751  16.918  18.730   6.358 -0.0351  0.0428 -0.0855
    1CHOL    C225752  17.100  18.379   6.185 -0.0089  0.1827 -0.1612
    1CHOL   ROH25753  14.228  13.546   6.527 -0.0115 -0.0807  0.0003
    1CHOL    R125754  14.111  13.545   6.270 -0.0530  0.0479  0.0179
    1CHOL    R225755  14.216  13.688   6.058  0.0680 -0.0582  0.0055
    1CHOL    R325756  14.211  13.447   5.934 -0.2074 -0.0538  0.0005
    1CHOL    R425757  14.188  13.642   5.717  0.0641 -0.0168  0.0000
    1CHOL    R525758  14.054  13.474   5.755 -0.1486  0.1423 -0.0236
    1CHOL    C125759  14.168  13.388   5.402 -0.1967  0.0115 -0.0078
    1CHOL    C225760  14.216  13.600   5.054 -0.0860  0.2603 -0.1834
    1CHOL   ROH25761  15.265  19.409   3.207  0.2723 -0.0912 -0.0628
    1CHOL    R125762  15.369  19.513   3.449  0.1926 -0.0733 -0.0357
    1CHOL    R225763  15.212  19.559   3.671  0.1155 -0.0355 -0.0979
    1CHOL    R325764  15.397  19.402   3.794  0.0569 -0.0371 -0.0123
    1CHOL    R425765  15.247  19.528   4.013  0.0962  0.1380 -0.0801
    1CHOL    R525766  15.464  19.529   3.986  0.0991  0.0443 -0.0792
    1CHOL    C125767  15.441  19.363   4.329  0.0299  0.2375  0.0106
    1CHOL    C225768  15.352  19.397   4.720 -0.0560 -0.0222  0.0188
    1CHOL   ROH25769  14.421  21.824   6.587 -0.1880 -0.0317  0.0120
    1CHOL    R125770  14.284  21.690   6.379 -0.1893  0.0679 -0.0520
    1CHOL    R225771  14.188  21.820   6.155 -0.0005  0.1406 -0.0914
    1CHOL    R325772  14.333  21.632   6.023 -0.0710  0.0429 -0.0320
    1CHOL    R425773  14.109  21.691   5.844  0.0044  0.1445 -0.0946
    1CHOL    R525774  14.170  21.494   5.916 -0.1213  0.1191 -0.0545
    1CHOL    C125775  14.200  21.439   5.540 -0.0589  0.0553 -0.0407
    1CHOL    C225776  14.236  21.253   5.211 -0.0044  0.0240 -0.2467
    1CHOL   ROH25777  19.297  26.368   6.067  0.2024 -0.0374  0.0818
    1CHOL    R125778  19.119  26.368   5.848  0.1807 -0.0143  0.1006
    1CHOL    R225779  18.993  26.596   5.758  0.1719 -0.0105  0.1420
    1CHOL    R325780  19.102  26.524   5.519  0.1413  0.0212  0.1170
    1CHOL    R425781  18.873  26.693   5.448 -0.1059 -0.2624  0.1653
    1CHOL    R525782  18.913  26.492   5.375  0.0941 -0.2548  0.2244
    1CHOL    C125783  18.905  26.682   5.045 -0.2965 -0.3793  0.1554
    1CHOL    C225784  18.473  26.586   5.072  0.1504 -0.0293  0.3381
    1CHOL   ROH25785  17.688   8.407   4.770 -0.0235  0.0161  0.0600
    1CHOL    R125786  17.419   8.347   4.835 -0.0282 -0.0793 -0.0383
    1CHOL    R225787  17.298   8.442   5.064 -0.1171 -0.2073 -0.0251
    1CHOL    R325788  17.112   8.535   4.888 -0.0859 -0.1754 -0.0394
    1CHOL    R425789  16.966   8.503   5.140 -0.1348 -0.2359 -0.0839
    1CHOL    R525790  16.911   8.419   4.947 -0.0923 -0.1921 -0.1093
    1CHOL    C125791  16.599   8.625   5.019 -0.1160 -0.2226 -0.1315
    1CHOL    C225792  16.237   8.407   5.129 -0.1935 -0.1032  0.1138
    1CHOL   ROH25793  17.609  13.340   6.524  0.2848  0.1327  0.0461
    1CHOL    R125794  17.618  13.454   6.265  0.2423  0.0678  0.0168
    1CHOL    R225795  17.843  13.441   6.105  0.1377 -0.1747 -0.1067
    1CHOL    R325796  17.669  13.334   5.925 -0.0627 -0.0517  0.0089
    1CHOL    R425797  17.875  13.463   5.761  0.1116 -0.4716 -0.1318
    1CHOL    R525798  17.660  13.495   5.748  0.1467 -0.1584 -0.1081
    1CHOL    C125799  17.731  13.376   5.393 -0.0917 -0.5289 -0.0379
    1CHOL    C225800  17.764  13.387   4.986  0.1769  0.1023  0.1185
    1CHOL   ROH25801  22.202  18.330   3.421  0.0857 -0.1107 -0.0780
    1CHOL    R125802  22.116  18.276   3.685 -0.0805 -0.0783 -0.1249
    1CHOL    R225803  22.168  18.036   3.811 -0.0677 -0.0227 -0.0263
    1CHOL    R325804  22.273  18.197   4.003 -0.2740  0.0722  0.0106
    1CHOL    R425805  22.225  17.941   4.139  0.1538 -0.0634 -0.0746
    1CHOL    R525806  22.154  18.138   4.203 -0.1409 -0.1924  0.0167
    1CHOL    C125807  22.357  18.038   4.510  0.0890  0.0022 -0.0679
    1CHOL    C225808  22.370  18.099   4.934  0.1395 -0.1192  0.1734
    1CHOL   ROH25809  13.088   8.845   3.843  0.1372 -0.1197  0.0794
    1CHOL    R125810  13.001   8.878   4.110  0.0948  0.0679  0.0440
    1CHOL    R225811  13.029   8.680   4.302 -0.2232  0.0804  0.1091
    1CHOL    R325812  13.155   8.877   4.440 -0.0070 -0.0429  0.0923
    1CHOL    R425813  13.060   8.691   4.646 -0.1184  0.0208  0.1017
    1CHOL    R525814  13.022   8.905   4.637  0.0708  0.0581  0.1319
    1CHOL    C125815  13.196   8.882   4.976  0.1456 -0.1296  0.0816
    1CHOL    C225816  13.274   8.825   5.339  0.0240  0.2450  0.0859
    1CHOL   ROH25817  11.288   0.337   4.808 -0.1091 -0.1603  0.0646
    1CHOL    R125818  11.195   0.604   4.805 -0.0381 -0.1360  0.0293
    1CHOL    R225819  10.926   0.668   4.816 -0.0153 -0.0609  0.1392
    1CHOL    R325820  11.004   0.820   5.027  0.1270 -0.0164  0.0567
    1CHOL    R425821  10.720   0.883   4.991  0.1102  0.0007  0.2139
    1CHOL    R525822  10.884   1.026   4.999  0.1292 -0.0118  0.0798
    1CHOL    C125823  10.673   1.152   5.291  0.3168  0.0784  0.1799
    1CHOL    C225824  10.443   1.498   5.215  0.2415  0.1993  0.1262
    1CHOL   ROH25825  26.715  22.786   3.847  0.1515 -0.0025  0.0837
    1CHOL    R125826  26.768  22.591   4.045  0.2520 -0.0132  0.0466
    1CHOL    R225827  26.871  22.654   4.293  0.0719  0.0118  0.1161
    1CHOL    R325828  26.653  22.518   4.382  0.1623 -0.2335 -0.0297
    1CHOL    R425829  26.813  22.568   4.623 -0.1089  0.0601  0.0982
    1CHOL    R525830  26.739  22.375   4.554  0.1960 -0.0632  0.0985
    1CHOL    C125831  26.576  22.389   4.898 -0.1294 -0.1420 -0.0491
    1CHOL    C225832  26.471  22.188   5.111  0.0029 -0.0049  0.0136
    1CHOL   ROH25833   9.962   2.647   6.765  0.1419  0.0785 -0.0699
    1CHOL    R125834   9.864   2.768   6.529  0.0609 -0.0184 -0.0863
    1CHOL    R225835   9.986   2.988   6.413 -0.0599  0.0169 -0.1398
    1CHOL    R325836   9.988   2.829   6.192 -0.0001 -0.0232 -0.1111
    1CHOL    R425837   9.975   3.103   6.087  0.1365 -0.0263 -0.1630
    1CHOL    R525838   9.840   2.939   6.039  0.1055  0.0032 -0.2017
    1CHOL    C125839   9.971   3.022   5.690  0.3069 -0.0892 -0.1494
    1CHOL    C225840   9.911   3.186   5.393 -0.1599  0.0297  0.0975
    1CHOL   ROH25841  15.478  13.803   2.968  0.1457 -0.2940  0.0051
    1CHOL    R125842  15.561  13.905   3.219  0.0353 -0.1502 -0.0151
    1CHOL    R225843  15.384  13.958   3.423 -0.0427 -0.1378 -0.0853
    1CHOL    R325844  15.549  13.795   3.566 -0.0102 -0.0066  0.0293
    1CHOL    R425845  15.378  13.923   3.767 -0.0465  0.0907 -0.0603
    1CHOL    R525846  15.596  13.918   3.766 -0.0448  0.1390 -0.0502
    1CHOL    C125847  15.528  13.749   4.101 -0.0182  0.3469  0.0619
    1CHOL    C225848  15.571  13.684   4.538 -0.2844 -0.1116 -0.1783
    1CHOL   ROH25849  16.931  13.452   3.104 -0.1902  0.2211  0.0687
    1CHOL    R125850  16.817  13.469   3.362 -0.0509  0.3319  0.1244
    1CHOL    R225851  16.815  13.256   3.539 -0.3199  0.2775  0.0582
    1CHOL    R325852  16.932  13.436   3.706  0.0496  0.0396  0.0654
    1CHOL    R425853  16.812  13.236   3.884 -0.1389  0.1359  0.0526
    1CHOL    R525854  16.782  13.451   3.892  0.1818  0.1841  0.1641
    1CHOL    C125855  16.922  13.392   4.242  0.3134 -0.1701  0.0560
    1CHOL    C225856  17.088  13.511   4.604 -0.0599  0.3127  0.1455
    1CHOL   ROH25857  13.357  11.165   7.025  0.1058 -0.3643 -0.0042
    1CHOL    R125858  13.306  11.291   6.776 -0.1505 -0.3881  0.0336
    1CHOL    R225859  13.506  11.346   6.594 -0.2595  0.0465  0.0360
    1CHOL    R325860  13.346  11.206   6.425 -0.0083 -0.2184  0.0069
    1CHOL    R425861  13.567  11.299   6.257 -0.1605  0.2133  0.0292
    1CHOL    R525862  13.355  11.329   6.219 -0.2209 -0.1613  0.0282
    1CHOL    C125863  13.452  11.141   5.902  0.1331  0.0618 -0.0021
    1CHOL    C225864  13.474  11.305   5.633  0.1462 -0.3929 -0.2826
    1CHOL   ROH25865  22.292  14.314   2.800  0.0270  0.1420 -0.1062
    1CHOL    R125866  22.400  14.472   3.008 -0.1951  0.1721 -0.0099
    1CHOL    R225867  22.665  14.553   3.010 -0.1224 -0.0539  0.3968
    1CHOL    R325868  22.555  14.801   3.036  0.0390  0.0589  0.0553
    1CHOL    R425869  22.840  14.843   3.082  0.0154 -0.1504  0.4522
    1CHOL    R525870  22.678  14.903   3.213 -0.1377  0.0782  0.1706
    1CHOL    C125871  22.839  15.243   3.147  0.2469 -0.1007  0.1638
    1CHOL    C225872  22.795  15.680   3.152  0.2282 -0.2225  0.1778
    1CHOL   ROH25873   8.068   4.247   4.704  0.0414 -0.0521 -0.3086
    1CHOL    R125874   7.883   4.101   4.861  0.0562  0.0657 -0.1787
    1CHOL    R225875   7.683   3.946   4.750 -0.0043  0.0401 -0.0414
    1CHOL    R325876   7.792   3.751   4.905  0.0041  0.1051  0.0336
    1CHOL    R425877   7.507   3.745   4.970 -0.0208 -0.0073 -0.0981
    1CHOL    R525878   7.671   3.764   5.111 -0.0958  0.0785 -0.0248
    1CHOL    C125879   7.508   3.446   5.243 -0.0225  0.0262 -0.0608
    1CHOL    C225880   7.280   3.211   5.053 -0.2274 -0.1201 -0.1359
    1CHOL   ROH25881  28.295  18.321   5.213  0.1370 -0.0205  0.0426
    1CHOL    R125882  28.486  18.128   5.134  0.1531 -0.0818  0.2228
    1CHOL    R225883  28.535  17.898   5.279 -0.1514 -0.1691  0.2046
    1CHOL    R325884  28.484  17.776   5.042  0.0997 -0.0442  0.0841
    1CHOL    R425885  28.590  17.563   5.215 -0.1048 -0.1374  0.0809
    1CHOL    R525886  28.664  17.619   5.017  0.1126 -0.0401  0.1928
    1CHOL    C125887  28.574  17.253   4.955  0.1579 -0.0017 -0.1043
    1CHOL    C225888  28.410  16.966   4.841 -0.2502  0.0601 -0.1247
    1CHOL   ROH25889   5.178  25.454   4.903  0.1080 -0.0450  0.0832
    1CHOL    R125890   4.964  25.633   4.951  0.0828 -0.0710  0.0715
    1CHOL    R225891   4.999  25.908   4.957  0.0586 -0.0664  0.1270
    1CHOL    R325892   4.801  25.904   4.771  0.0988 -0.0538  0.0849
    1CHOL    R425893   4.838  26.188   4.834  0.3150 -0.0340 -0.1439
    1CHOL    R525894   4.651  26.077   4.840  0.2239  0.1275 -0.0948
    1CHOL    C125895   4.559  26.348   4.588  0.5021 -0.0032 -0.3412
    1CHOL    C225896   4.656  26.752   4.834  0.1740 -0.2378  0.1686
    1CHOL   ROH25897  25.847   9.606   5.703  0.0169 -0.1517  0.1372
    1CHOL    R125898  25.920   9.378   5.552 -0.0378 -0.2731  0.2904
    1CHOL    R225899  26.085   9.392   5.331 -0.4240 -0.3879 -0.0239
    1CHOL    R325900  26.229   9.205   5.467 -0.0197 -0.0892 -0.0232
    1CHOL    R425901  26.293   9.158   5.185 -0.3721 -0.3203 -0.0586
    1CHOL    R525902  26.220   9.011   5.328 -0.0044 -0.2510  0.2050
    1CHOL    C125903  26.548   8.846   5.227  0.0378 -0.0006 -0.0780
    1CHOL    C225904  26.679   8.760   4.857 -0.1560 -0.0899  0.1366
    1CHOL   ROH25905  27.142  16.900   5.201  0.1183  0.1269  0.2826
    1CHOL    R125906  27.331  17.034   5.039  0.0432  0.0987  0.1702
    1CHOL    R225907  27.603  16.991   5.061  0.0519  0.0701  0.0213
    1CHOL    R325908  27.584  16.941   4.795 -0.1025  0.0587  0.0330
    1CHOL    R425909  27.864  17.015   4.836 -0.0794  0.0591 -0.1345
    1CHOL    R525910  27.726  17.104   4.693 -0.1618  0.0529 -0.0581
    1CHOL    C125911  27.999  16.982   4.455 -0.3010  0.0419 -0.2143
    1CHOL    C225912  27.946  17.311   4.298  0.0203 -0.1329  0.1653
    1CHOL   ROH25913  27.088  20.212   4.602  0.1419  0.1192 -0.1124
    1CHOL    R125914  27.320  20.224   4.442  0.1092  0.1107 -0.1609
    1CHOL    R225915  27.510  20.023   4.440  0.1735  0.1704 -0.0900
    1CHOL    R325916  27.466  20.028   4.172  0.1232  0.0162 -0.0854
    1CHOL    R425917  27.706  19.862   4.205  0.2688  0.2275 -0.0503
    1CHOL    R525918  27.685  20.036   4.076  0.1020  0.1559 -0.1248
    1CHOL    C125919  27.778  19.772   3.816  0.2770  0.1159 -0.0229
    1CHOL    C225920  28.155  19.593   3.830  0.0684  0.1482  0.0992
    1CHOL   ROH25921   3.506   7.273   5.688 -0.1996 -0.1273 -0.1957
    1CHOL    R125922   3.524   7.444   5.463  0.1760 -0.2337 -0.2545
    1CHOL    R225923   3.598   7.354   5.213 -0.2505 -0.5427 -0.2808
    1CHOL    R325924   3.364   7.470   5.138  0.0298  0.1515 -0.1577
    1CHOL    R425925   3.527   7.467   4.894 -0.1276 -0.4387 -0.2718
    1CHOL    R525926   3.429   7.640   4.983  0.4512 -0.0908 -0.2621
    1CHOL    C125927   3.266   7.642   4.638  0.2069  0.2734 -0.1509
    1CHOL    C225928   3.012   7.846   4.324 -0.0498 -0.2308 -0.0263
    1CHOL   ROH25929   5.555  11.469   3.821  0.1666 -0.1927 -0.2528
    1CHOL    R125930   5.502  11.493   4.098  0.0715 -0.0242 -0.2836
    1CHOL    R225931   5.475  11.273   4.264 -0.1014  0.0725 -0.1789
    1CHOL    R325932   5.669  11.399   4.408 -0.0933  0.0504 -0.1711
    1CHOL    R425933   5.522  11.239   4.605  0.0293 -0.1165 -0.2146
    1CHOL    R525934   5.563  11.453   4.616 -0.0385 -0.1094 -0.1011
    1CHOL    C125935   5.731  11.337   4.938  0.1129 -0.2472 -0.2281
    1CHOL    C225936   5.930  11.436   5.136 -0.1555  0.2422 -0.1755
    1CHOL   ROH25937  19.682   5.576   3.540 -0.1850 -0.0242  0.0034
    1CHOL    R125938  19.705   5.545   3.820 -0.1768 -0.0501  0.0011
    1CHOL    R225939  19.789   5.750   3.986  0.0401 -0.1257 -0.0028
    1CHOL    R325940  19.556   5.697   4.116  0.0022  0.0904  0.0199
    1CHOL    R425941  19.741   5.781   4.327  0.1520 -0.2558  0.0243
    1CHOL    R525942  19.625   5.597   4.322 -0.0766 -0.1087 -0.0518
    1CHOL    C125943  19.495   5.749   4.647  0.1812 -0.1288  0.0615
    1CHOL    C225944  19.328   5.569   4.839 -0.0500  0.0455 -0.0569
    1CHOL   ROH25945  28.888   0.173   5.969  0.0546 -0.1068 -0.0468
    1CHOL    R125946  28.955   0.092   5.707 -0.1772 -0.0534 -0.1256
    1CHOL    R225947  28.790   0.136   5.490 -0.2101  0.3207 -0.0318
    1CHOL    R325948  29.011   0.255   5.386 -0.0758  0.0581 -0.0523
    1CHOL    R425949  28.826   0.232   5.160 -0.1012  0.2170 -0.0500
    1CHOL    R525950  29.032   0.160   5.167 -0.1769 -0.0089 -0.0339
    1CHOL    C125951  29.055   0.399   4.870  0.0882 -0.0900 -0.0800
    1CHOL    C225952  29.259   0.402   4.503  0.2253 -0.4605 -0.2242
    1CHOL   ROH25953  11.861   6.468   5.556 -0.1282  0.1822 -0.0812
    1CHOL    R125954  12.007   6.671   5.424  0.1154  0.0248 -0.0595
    1CHOL    R225955  11.959   6.940   5.465  0.0550  0.0770 -0.4413
    1CHOL    R325956  12.225   6.946   5.520 -0.0332  0.1183  0.0154
    1CHOL    R425957  12.165   7.213   5.416  0.1708 -0.0182 -0.4896
    1CHOL    R525958  12.320   7.077   5.344  0.2883 -0.1511 -0.0248
    1CHOL    C125959  12.535   7.378   5.439  0.1555 -0.0348 -0.0889
    1CHOL    C225960  12.599   7.653   5.730 -0.0751  0.1711  0.1219
    1CHOL   ROH25961  21.698  12.935   3.195  0.0354 -0.2785 -0.0089
    1CHOL    R125962  21.896  13.054   3.360  0.0215 -0.2759  0.0059
    1CHOL    R225963  21.836  13.171   3.603 -0.0029 -0.2468 -0.0154
    1CHOL    R325964  22.027  13.001   3.695 -0.0276 -0.2501  0.0298
    1CHOL    R425965  22.046  13.235   3.870  0.0625 -0.1666 -0.0854
    1CHOL    R525966  22.209  13.143   3.758  0.0196 -0.2616 -0.0739
    1CHOL    C125967  22.347  13.112   4.112  0.0775 -0.1228 -0.0838
    1CHOL    C225968  22.467  13.405   4.250  0.0576 -0.1156 -0.1166
    1CHOL   ROH25969  20.485  10.556   3.342 -0.1082  0.1979 -0.0903
    1CHOL    R125970  20.374  10.409   3.557 -0.0202  0.1087 -0.1057
    1CHOL    R225971  20.443  10.455   3.820 -0.0210  0.0975 -0.1071
    1CHOL    R325972  20.174  10.483   3.852 -0.0325 -0.0382 -0.0753
    1CHOL    R425973  20.280  10.451   4.125  0.0281  0.0560 -0.0808
    1CHOL    R525974  20.121  10.334   4.032  0.0738 -0.0435 -0.0436
    1CHOL    C125975  19.933  10.475   4.333  0.0459 -0.0957 -0.0356
    1CHOL    C225976  19.614  10.498   4.394  0.0771 -0.2790 -0.0749
    1CHOL   ROH25977  14.497  16.577   6.580 -0.1090 -0.0228 -0.2424
    1CHOL    R125978  14.551  16.738   6.354 -0.1234  0.0274 -0.2115
    1CHOL    R225979  14.765  16.690   6.185 -0.0173  0.1802 -0.1297
    1CHOL    R325980  14.572  16.690   5.994  0.0584  0.0581 -0.2051
    1CHOL    R425981  14.824  16.689   5.845  0.1177  0.4133 -0.1083
    1CHOL    R525982  14.660  16.830   5.820 -0.0296  0.2411 -0.1018
    1CHOL    C125983  14.677  16.688   5.467  0.2674  0.4342 -0.1666
    1CHOL    C225984  14.901  16.560   5.126 -0.3164  0.2254  0.0470
    1CHOL   ROH25985  13.938  23.083   5.846  0.1320  0.1598 -0.0931
    1CHOL    R125986  13.900  23.109   5.567  0.1490  0.0718 -0.1045
    1CHOL    R225987  14.094  23.213   5.400  0.1499  0.0457 -0.1232
    1CHOL    R325988  14.058  22.979   5.265  0.1874  0.0001 -0.0532
    1CHOL    R425989  14.095  23.181   5.055 -0.1224 -0.0113 -0.1201
    1CHOL    R525990  13.929  23.041   5.073 -0.0165 -0.1166  0.0450
    1CHOL    C125991  14.061  22.943   4.729 -0.2458 -0.0873 -0.0525
    1CHOL    C225992  14.116  22.696   4.416 -0.1003  0.3944 -0.3097
    1CHOL   ROH25993  17.408  18.691   3.518 -0.2582 -0.0794 -0.0754
    1CHOL    R125994  17.451  18.798   3.776 -0.1987  0.0063 -0.1250
    1CHOL    R225995  17.243  18.861   3.948 -0.1361 -0.2622  0.0164
    1CHOL    R325996  17.379  18.700   4.119  0.2144 -0.0447 -0.0401
    1CHOL    R425997  17.210  18.866   4.291 -0.4665 -0.6516 -0.0003
    1CHOL    R525998  17.425  18.840   4.308 -0.3543 -0.0367  0.1382
    1CHOL    C125999  17.317  18.717   4.653 -0.3300 -0.6741 -0.0630
    1CHOL    C226000  17.086  18.777   4.898  0.2871 -0.2265  0.0149
    1CHOL   ROH26001  15.260  11.966   6.792 -0.3659  0.2678 -0.0165
    1CHOL    R126002  15.181  11.984   6.521 -0.2296  0.1721 -0.0629
    1CHOL    R226003  15.349  12.080   6.323 -0.1073  0.0425 -0.0246
    1CHOL    R326004  15.292  11.842   6.204 -0.1125  0.0058  0.0506
    1CHOL    R426005  15.315  12.032   5.982 -0.0659 -0.0758 -0.0126
    1CHOL    R526006  15.147  11.900   6.022 -0.0824 -0.0462  0.0110
    1CHOL    C126007  15.243  11.781   5.673 -0.0466 -0.1792  0.0651
    1CHOL    C226008  15.210  11.975   5.397  0.0000 -0.1332  0.0457
    1CHOL   ROH26009  19.295  12.164   3.164 -0.1161  0.0523 -0.1285
    1CHOL    R126010  19.411  12.132   3.420 -0.1410 -0.0278 -0.1273
    1CHOL    R226011  19.393  12.325   3.617 -0.0965 -0.0581 -0.0935
    1CHOL    R326012  19.292  12.120   3.764 -0.1650 -0.0555 -0.1365
    1CHOL    R426013  19.348  12.332   3.959  0.1020 -0.1897 -0.0633
    1CHOL    R526014  19.418  12.125   3.967 -0.0450 -0.2473 -0.2035
    1CHOL    C126015  19.227  12.144   4.297  0.1531 -0.2641 -0.0861
    1CHOL    C226016  19.537  12.179   4.544  0.2261  0.0012 -0.2377
    1CHOL   ROH26017  15.022  25.022   6.628  0.0222  0.1241  0.0525
    1CHOL    R126018  14.918  25.007   6.365 -0.0306  0.0723  0.0763
    1CHOL    R226019  14.857  25.232   6.216  0.0766  0.0446 -0.0086
    1CHOL    R326020  15.022  25.115   6.033 -0.0222 -0.1299  0.0111
    1CHOL    R426021  14.818  25.253   5.873  0.0713 -0.0120 -0.0117
    1CHOL    R526022  14.875  25.043   5.859 -0.0906 -0.0620  0.0386
    1CHOL    C126023  14.950  25.156   5.502 -0.0244 -0.2089  0.0050
    1CHOL    C226024  14.862  24.855   5.164  0.0834 -0.1774  0.3126
    1CHOL   ROH26025  15.765  14.484   6.466 -0.1195 -0.1387  0.0482
    1CHOL    R126026  15.889  14.575   6.229  0.0029 -0.3304  0.0355
    1CHOL    R226027  15.962  14.405   6.023 -0.2807 -0.4494  0.0258
    1CHOL    R326028  15.812  14.575   5.873 -0.0364 -0.2118  0.0444
    1CHOL    R426029  15.979  14.432   5.679 -0.0391 -0.2160  0.0527
    1CHOL    R526030  15.961  14.648   5.700  0.1366 -0.2155  0.1912
    1CHOL    C126031  15.848  14.607   5.338  0.3310  0.1429  0.0858
    1CHOL    C226032  15.701  14.571   5.079 -0.1984  0.0208  0.0160
    1CHOL   ROH26033  12.214  22.500   5.741 -0.1481 -0.2416  0.0116
    1CHOL    R126034  12.012  22.506   5.542 -0.0806  0.1216 -0.0532
    1CHOL    R226035  12.011  22.691   5.337  0.3661  0.0785 -0.1044
    1CHOL    R326036  11.997  22.468   5.181 -0.0409  0.0578 -0.0482
    1CHOL    R426037  11.916  22.688   5.004  0.2685  0.1491 -0.0779
    1CHOL    R526038  11.805  22.505   5.043 -0.0233  0.3372 -0.0035
    1CHOL    C126039  11.847  22.477   4.665 -0.1704  0.1710 -0.0097
    1CHOL    C226040  11.594  22.286   4.395 -0.1752  0.2506 -0.0164
    1CHOL   ROH26041   5.643  21.587   4.830 -0.1156  0.3265 -0.2234
    1CHOL    R126042   5.560  21.370   4.667 -0.1599  0.2501 -0.1003
    1CHOL    R226043   5.502  21.399   4.398 -0.0571  0.0893 -0.1410
    1CHOL    R326044   5.683  21.199   4.371 -0.1386 -0.0146  0.0579
    1CHOL    R426045   5.468  21.129   4.186 -0.0193  0.0652 -0.1163
    1CHOL    R526046   5.551  21.002   4.341 -0.2214  0.0504 -0.0158
    1CHOL    C126047   5.619  20.784   4.036 -0.0738 -0.0464  0.0849
    1CHOL    C226048   5.232  20.680   4.045 -0.2943 -0.0731  0.0001
    1CHOL   ROH26049  20.244   9.506   6.320 -0.0142  0.0109 -0.0737
    1CHOL    R126050  20.295   9.351   6.089 -0.2231 -0.0263 -0.0973
    1CHOL    R226051  20.125   9.348   5.871 -0.1653  0.3486 -0.1586
    1CHOL    R326052  20.350   9.415   5.735  0.0135 -0.0268 -0.0617
    1CHOL    R426053  20.140   9.409   5.531  0.0979  0.3022 -0.1570
    1CHOL    R526054  20.329   9.302   5.525 -0.0711 -0.0082 -0.0609
    1CHOL    C126055  20.360   9.508   5.205  0.4192 -0.0772 -0.0651
    1CHOL    C226056  20.324   9.466   4.799  0.1828 -0.0322 -0.4588
    1CHOL   ROH26057  22.914  11.927   2.975  0.0504 -0.0186 -0.1168
    1CHOL    R126058  22.946  11.954   3.255 -0.1224 -0.0806 -0.0893
    1CHOL    R226059  22.919  11.740   3.429  0.1080 -0.1958 -0.1847
    1CHOL    R326060  23.167  11.817   3.510 -0.0382  0.1418 -0.0425
    1CHOL    R426061  23.052  11.682   3.742  0.0953 -0.2149 -0.1837
    1CHOL    R526062  23.137  11.882   3.738 -0.2207 -0.0722 -0.0049
    1CHOL    C126063  23.361  11.720   4.001 -0.0496  0.0908 -0.0496
    1CHOL    C226064  23.568  11.360   4.300 -0.1187  0.2758  0.0603
    1CHOL   ROH26065  12.700  10.583   6.701  0.3991  0.1438 -0.1424
    1CHOL    R126066  12.806  10.573   6.439  0.1812  0.1527 -0.2336
    1CHOL    R226067  12.736  10.376   6.257  0.1072  0.0990 -0.1475
    1CHOL    R326068  12.675  10.590   6.099 -0.1150  0.0523 -0.1278
    1CHOL    R426069  12.699  10.364   5.913  0.0187  0.0687 -0.1368
    1CHOL    R526070  12.804  10.555   5.900 -0.1413  0.1583 -0.1652
    1CHOL    C126071  12.621  10.558   5.566 -0.2415  0.0072 -0.1121
    1CHOL    C226072  12.600  10.392   5.204  0.0240 -0.1356 -0.1472
    1CHOL   ROH26073   6.575  28.664   4.062 -0.1237 -0.2388  0.1028
    1CHOL    R126074   6.793  28.546   4.199 -0.0537 -0.1124  0.1024
    1CHOL    R226075   7.004  28.694   4.297 -0.1287  0.0100  0.0873
    1CHOL    R326076   6.941  28.571   4.531 -0.0559 -0.0110  0.0957
    1CHOL    R426077   7.207  28.686   4.577 -0.0296 -0.0456  0.0141
    1CHOL    R526078   7.148  28.478   4.607 -0.0395 -0.0412  0.0105
    1CHOL    C126079   7.265  28.565   4.959  0.0964 -0.0976 -0.0207
    1CHOL    C226080   7.355  28.672   5.305 -0.1494  0.0866 -0.0598
    1CHOL   ROH26081  15.545  23.361   5.968  0.1976 -0.1501  0.0415
    1CHOL    R126082  15.448  23.290   5.712  0.0946 -0.0592  0.0540
    1CHOL    R226083  15.568  23.375   5.479  0.0404 -0.0301  0.0351
    1CHOL    R326084  15.574  23.109   5.422 -0.0466 -0.0176 -0.0341
    1CHOL    R426085  15.618  23.241   5.164 -0.0434  0.0350 -0.0060
    1CHOL    R526086  15.466  23.091   5.209 -0.0813  0.0690 -0.0236
    1CHOL    C126087  15.653  22.913   4.928 -0.1739  0.0847 -0.0949
    1CHOL    C226088  15.584  22.862   4.531  0.1711  0.2140  0.1728
    1CHOL   ROH26089  14.127  15.483   6.760  0.1668 -0.0703  0.1252
    1CHOL    R126090  14.106  15.628   6.518 -0.1279 -0.2829  0.0198
    1CHOL    R226091  14.327  15.712   6.375 -0.2962  0.0957 -0.0053
    1CHOL    R326092  14.205  15.580   6.171  0.0098 -0.3109  0.0583
    1CHOL    R426093  14.408  15.747   6.041 -0.3975  0.1872 -0.0228
    1CHOL    R526094  14.195  15.740   5.994 -0.4159 -0.3779 -0.0040
    1CHOL    C126095  14.340  15.643   5.655 -0.1693 -0.1412  0.0267
    1CHOL    C226096  14.460  15.608   5.328 -0.0122 -0.0624 -0.0930
    1CHOL   ROH26097  13.988  16.669   3.147 -0.1751  0.1251 -0.1139
    1CHOL    R126098  14.036  16.647   3.425 -0.0902 -0.0596 -0.1418
    1CHOL    R226099  14.151  16.850   3.574  0.0959 -0.2127 -0.0668
    1CHOL    R326100  13.929  16.820   3.727  0.1278 -0.1538 -0.0092
    1CHOL    R426101  14.145  16.861   3.919  0.1321  0.0875 -0.0736
    1CHOL    R526102  14.003  16.696   3.918  0.1902  0.0400  0.0906
    1CHOL    C126103  13.933  16.840   4.264  0.1832  0.3177 -0.0235
    1CHOL    C226104  14.038  16.808   4.621  0.1651 -0.1912 -0.0030
    1CHOL   ROH26105  11.947  16.909   6.366 -0.0341  0.1028  0.0094
    1CHOL    R126106  12.087  16.939   6.122 -0.1828  0.2430 -0.0610
    1CHOL    R226107  12.229  16.732   6.005  0.1504  0.4364 -0.0144
    1CHOL    R326108  12.074  16.792   5.790 -0.0513  0.0549  0.0161
    1CHOL    R426109  12.304  16.648   5.678  0.0364  0.1993  0.0180
    1CHOL    R526110  12.231  16.843   5.616 -0.2170  0.0597 -0.1328
    1CHOL    C126111  12.202  16.655   5.286 -0.2195 -0.2970  0.0656
    1CHOL    C226112  12.331  16.494   4.981 -0.3073 -0.1063  0.3897
    1CHOL   ROH26113   8.878   9.859   3.617  0.0495 -0.0357 -0.1720
    1CHOL    R126114   8.849   9.770   3.884  0.0449  0.0001 -0.1600
    1CHOL    R226115   8.896   9.933   4.102  0.0350  0.0323 -0.1799
    1CHOL    R326116   8.644   9.858   4.172  0.0350  0.0351 -0.1782
    1CHOL    R426117   8.782   9.897   4.427  0.0712 -0.0898 -0.1805
    1CHOL    R526118   8.674   9.719   4.364  0.0413 -0.0490 -0.2407
    1CHOL    C126119   8.479   9.806   4.680  0.0923 -0.1582 -0.1792
    1CHOL    C226120   8.437   9.513   5.041 -0.1330  0.1666  0.0320
    1CHOL   ROH26121   1.205  14.596   5.629 -0.0061  0.2795 -0.2339
    1CHOL    R126122   1.080  14.588   5.374  0.2596  0.1597 -0.3643
    1CHOL    R226123   1.206  14.485   5.150  0.3144 -0.4264 -0.0847
    1CHOL    R326124   0.982  14.332   5.136  0.0142 -0.0046 -0.0921
    1CHOL    R426125   1.081  14.345   4.860  0.2661 -0.4931 -0.0319
    1CHOL    R526126   0.880  14.395   4.928  0.3016 -0.0202 -0.2410
    1CHOL    C126127   0.798  14.120   4.677 -0.0439 -0.1361 -0.0083
    1CHOL    C226128   0.586  13.968   4.409  0.1410  0.0417  0.0740
    1CHOL   ROH26129  17.551  16.631   6.812 -0.1787  0.0033 -0.1728
    1CHOL    R126130  17.706  16.747   6.605 -0.1835 -0.0237 -0.1931
    1CHOL    R226131  17.981  16.726   6.596 -0.1488  0.2390 -0.0258
    1CHOL    R326132  17.933  16.629   6.347  0.0720 -0.0334  0.0329
    1CHOL    R426133  18.177  16.787   6.318 -0.1225  0.2544 -0.0027
    1CHOL    R526134  17.995  16.807   6.200 -0.1015 -0.0775 -0.0921
    1CHOL    C126135  18.246  16.732   5.922  0.1006  0.0074  0.0659
    1CHOL    C226136  18.240  16.926   5.585 -0.2208 -0.1362  0.1138
    1CHOL   ROH26137  10.586  21.154   2.768 -0.0279  0.1246 -0.0082
    1CHOL    R126138  10.603  21.124   3.049  0.0157  0.1265 -0.0111
    1CHOL    R226139  10.677  21.331   3.216 -0.0944  0.1657 -0.0129
    1CHOL    R326140  10.443  21.270   3.341 -0.0470  0.0203  0.0084
    1CHOL    R426141  10.585  21.444   3.530 -0.1263  0.0903  0.0056
    1CHOL    R526142  10.503  21.246   3.572 -0.0073  0.0381  0.0007
    1CHOL    C126143  10.312  21.452   3.829 -0.1003 -0.0900  0.0365
    1CHOL    C226144  10.156  21.554   4.219  0.1540  0.0833 -0.1962
    1CHOL   ROH26145  13.618   8.964   3.884  0.0079  0.0094 -0.0435
    1CHOL    R126146  13.548   8.971   4.158 -0.0573 -0.1092 -0.0561
    1CHOL    R226147  13.565   8.749   4.322  0.1288 -0.1252 -0.0920
    1CHOL    R326148  13.716   8.914   4.476 -0.0649  0.0003 -0.0325
    1CHOL    R426149  13.534   8.784   4.664 -0.0103 -0.1703 -0.0996
    1CHOL    R526150  13.565   8.998   4.641 -0.1913 -0.1421 -0.0757
    1CHOL    C126151  13.658   8.959   5.008 -0.2731 -0.0790 -0.0481
    1CHOL    C226152  13.705   9.171   5.336  0.0189  0.2110  0.0638
    1CHOL   ROH26153  20.589  17.201   6.794  0.0334 -0.0036  0.0514
    1CHOL    R126154  20.461  17.048   6.594  0.0966  0.0082  0.0020
    1CHOL    R226155  20.224  17.127   6.474  0.0772 -0.0399  0.0143
    1CHOL    R326156  20.367  17.093   6.245  0.0979  0.0725  0.0092
    1CHOL    R426157  20.098  17.165   6.155  0.0758  0.0211  0.0214
    1CHOL    R526158  20.212  16.990   6.094  0.1318  0.0717 -0.0280
    1CHOL    C126159  20.158  17.155   5.754  0.0944  0.1622  0.0207
    1CHOL    C226160  20.069  17.209   5.412 -0.0792 -0.4102 -0.1840
    1CHOL   ROH26161   3.946   4.271   5.731 -0.1040 -0.1411 -0.0610
    1CHOL    R126162   3.902   4.238   5.453 -0.1025 -0.0459 -0.0738
    1CHOL    R226163   3.903   4.449   5.276 -0.0185  0.0058 -0.0148
    1CHOL    R326164   4.088   4.298   5.146 -0.0655 -0.0233 -0.0470
    1CHOL    R426165   4.084   4.553   5.000  0.1004  0.0578  0.0833
    1CHOL    R526166   4.059   4.354   4.915  0.0177  0.1135 -0.0261
    1CHOL    C126167   4.364   4.472   4.719  0.1255  0.0609  0.1101
    1CHOL    C226168   4.375   4.798   4.524 -0.2009  0.0169  0.1638
    1CHOL   ROH26169   7.835   7.470   3.850  0.0234 -0.1199  0.1047
    1CHOL    R126170   7.865   7.461   4.132 -0.1060 -0.4344  0.1135
    1CHOL    R226171   7.937   7.231   4.266  0.3833 -0.4653 -0.1683
    1CHOL    R326172   8.134   7.390   4.367 -0.0444 -0.1107  0.1434
    1CHOL    R426173   8.104   7.176   4.564  0.3161 -0.4017 -0.1191
    1CHOL    R526174   8.096   7.390   4.603 -0.2064 -0.4565  0.1184
    1CHOL    C126175   8.386   7.293   4.831 -0.1246 -0.0317  0.2021
    1CHOL    C226176   8.530   7.104   5.207 -0.0649 -0.1091 -0.0871
    1CHOL   ROH26177  14.215  17.886   2.804  0.0910 -0.0536 -0.1370
    1CHOL    R126178  14.075  17.811   3.038  0.2022 -0.1558 -0.1028
    1CHOL    R226179  14.197  17.685   3.251  0.4101  0.1827 -0.0176
    1CHOL    R326180  14.091  17.891   3.393  0.0411  0.0897 -0.1475
    1CHOL    R426181  14.042  17.655   3.559  0.4608  0.0939  0.0001
    1CHOL    R526182  13.893  17.799   3.492  0.1970 -0.2047 -0.0938
    1CHOL    C126183  13.852  17.831   3.870  0.1438 -0.0453 -0.1116
    1CHOL    C226184  13.744  17.817   4.272  0.3612  0.1056 -0.2466
    1CHOL   ROH26185  17.866   9.959   6.788  0.1080  0.1612  0.0171
    1CHOL    R126186  17.901   9.804   6.554  0.0319  0.0556  0.0748
    1CHOL    R226187  17.692   9.676   6.427 -0.0408  0.1632  0.0895
    1CHOL    R326188  17.781   9.814   6.210  0.0897  0.0242  0.0529
    1CHOL    R426189  17.639   9.584   6.098 -0.0420  0.0698  0.1154
    1CHOL    R526190  17.844   9.645   6.053  0.0090 -0.0795  0.1289
    1CHOL    C126191  17.693   9.659   5.703  0.0800 -0.1151  0.0960
    1CHOL    C226192  17.695   9.674   5.263  0.3733 -0.1581 -0.0973
    1CHOL   ROH26193  18.368  18.844   3.576 -0.1534  0.0122 -0.1348
    1CHOL    R126194  18.292  18.868   3.847 -0.1409 -0.1873 -0.1123
    1CHOL    R226195  18.335  18.668   4.033  0.2634 -0.1574 -0.1683
    1CHOL    R326196  18.460  18.866   4.170 -0.0624  0.0423 -0.1494
    1CHOL    R426197  18.319  18.711   4.375  0.3239 -0.3229 -0.1432
    1CHOL    R526198  18.304  18.926   4.342 -0.1140 -0.3283 -0.0571
    1CHOL    C126199  18.426  18.922   4.704  0.0532 -0.2318 -0.1108
    1CHOL    C226200  18.444  18.809   5.052  0.2835 -0.1892  0.0425
    1CHOL   ROH26201   9.049  19.248   2.914  0.1685 -0.0036  0.1475
    1CHOL    R126202   9.198  19.320   3.144  0.0707  0.0937  0.1809
    1CHOL    R226203   9.097  19.486   3.341 -0.1018 -0.0147  0.1832
    1CHOL    R326204   9.164  19.279   3.504  0.0455  0.0217  0.1713
    1CHOL    R426205   9.148  19.512   3.682 -0.2769 -0.0201  0.2110
    1CHOL    R526206   9.316  19.374   3.662 -0.1202  0.1571  0.2557
    1CHOL    C126207   9.240  19.333   4.034 -0.2405  0.0109  0.2160
    1CHOL    C226208   9.191  19.302   4.364  0.3565  0.0796 -0.0656
    1CHOL   ROH26209  24.208   2.771   3.560  0.2171  0.0284  0.3362
    1CHOL    R126210  23.975   2.612   3.588  0.1891  0.0388  0.1637
    1CHOL    R226211  23.883   2.525   3.834  0.0372 -0.0035  0.0872
    1CHOL    R326212  23.652   2.643   3.753  0.0885  0.0239 -0.0247
    1CHOL    R426213  23.565   2.401   3.892 -0.0080  0.1004  0.0690
    1CHOL    R526214  23.510   2.462   3.690  0.0575  0.0263  0.0219
    1CHOL    C126215  23.164   2.440   3.849  0.0140  0.1866 -0.0465
    1CHOL    C226216  22.848   2.460   4.103  0.1110  0.0767  0.1679
    1CHOL   ROH26217  12.008  16.001   6.511  0.1851 -0.0830  0.0009
    1CHOL    R126218  12.078  15.803   6.322  0.0510 -0.0720 -0.0612
    1CHOL    R226219  11.938  15.766   6.086  0.0568  0.1312 -0.0968
    1CHOL    R326220  12.184  15.796   5.974  0.1004 -0.0308 -0.0475
    1CHOL    R426221  12.001  15.767   5.747  0.1060  0.2125 -0.0880
    1CHOL    R526222  12.180  15.649   5.784  0.0036  0.0447 -0.1062
    1CHOL    C126223  12.268  15.796   5.443  0.1756  0.1078 -0.0367
    1CHOL    C226224  12.172  15.976   5.055 -0.1554 -0.0472 -0.0879
    1CHOL   ROH26225   8.285  14.024   2.800  0.1210  0.0264 -0.1384
    1CHOL    R126226   8.447  13.952   3.021 -0.0021 -0.1063 -0.0897
    1CHOL    R226227   8.495  14.124   3.232  0.1619 -0.1052 -0.1284
    1CHOL    R326228   8.402  13.916   3.380 -0.1108  0.0416 -0.0866
    1CHOL    R426229   8.527  14.096   3.575  0.2926 -0.1568 -0.1447
    1CHOL    R526230   8.569  13.883   3.549 -0.0707 -0.2347 -0.1721
    1CHOL    C126231   8.459  13.883   3.914  0.1128 -0.0490 -0.1149
    1CHOL    C226232   8.636  13.952   4.278  0.0482 -0.0761 -0.1562
    1CHOL   ROH26233  15.446  15.800   6.640 -0.3494  0.0852 -0.0661
    1CHOL    R126234  15.325  15.831   6.386 -0.2215  0.0445 -0.1321
    1CHOL    R226235  15.376  16.046   6.221 -0.1217  0.0049 -0.1488
    1CHOL    R326236  15.437  15.852   6.040 -0.0503 -0.0353 -0.0834
    1CHOL    R426237  15.388  16.091   5.878 -0.0940 -0.0944 -0.1620
    1CHOL    R526238  15.293  15.897   5.854 -0.0419 -0.1280 -0.1144
    1CHOL    C126239  15.451  15.936   5.509 -0.0109 -0.1901 -0.1083
    1CHOL    C226240  15.418  15.829   5.070  0.0446 -0.0066 -0.1706
    1CHOL   ROH26241   5.309  28.094   6.282 -0.2811 -0.1173  0.2011
    1CHOL    R126242   5.492  27.943   6.129 -0.1698 -0.1189  0.3356
    1CHOL    R226243   5.477  27.668   6.106 -0.4093 -0.0794 -0.0020
    1CHOL    R326244   5.477  27.723   5.839  0.0938  0.2271  0.0464
    1CHOL    R426245   5.592  27.453   5.860 -0.3184  0.0278 -0.0554
    1CHOL    R526246   5.680  27.625   5.759  0.0958  0.0292  0.2706
    1CHOL    C126247   5.658  27.380   5.467  0.2067  0.3782 -0.0410
    1CHOL    C226248   5.795  27.035   5.295  0.1911 -0.1484 -0.0966
    1CHOL   ROH26249  15.681  24.638   6.069  0.0716 -0.1151  0.0077
    1CHOL    R126250  15.648  24.481   5.835  0.1653 -0.1117 -0.0090
    1CHOL    R226251  15.499  24.567   5.619 -0.0358 -0.2489  0.0694
    1CHOL    R326252  15.728  24.513   5.482 -0.0224  0.0606 -0.0375
    1CHOL    R426253  15.512  24.443   5.296 -0.0161 -0.2050  0.0536
    1CHOL    R526254  15.677  24.315   5.357  0.1807  0.0033 -0.0308
    1CHOL    C126255  15.734  24.321   4.980  0.0078  0.1111 -0.0559
    1CHOL    C226256  15.885  24.506   4.638 -0.0592 -0.0044 -0.1397
    1CHOL   ROH26257  16.305  10.769   3.118 -0.2328 -0.0679 -0.0306
    1CHOL    R126258  16.327  10.810   3.397 -0.2654 -0.0561 -0.0291
    1CHOL    R226259  16.121  10.754   3.572 -0.2537 -0.1417 -0.0376
    1CHOL    R326260  16.311  10.605   3.697 -0.1964 -0.0615 -0.0302
    1CHOL    R426261  16.079  10.595   3.877 -0.1247  0.0077  0.0590
    1CHOL    R526262  16.282  10.654   3.930 -0.1132  0.0519 -0.0457
    1CHOL    C126263  16.234  10.363   4.171  0.0042  0.1702  0.1223
    1CHOL    C226264  16.458  10.152   4.455 -0.0156 -0.1792 -0.0677
    1CHOL   ROH26265  14.860  11.568   3.010 -0.1750  0.1760  0.0104
    1CHOL    R126266  14.981  11.664   3.248 -0.0070  0.0201 -0.0080
    1CHOL    R226267  14.845  11.820   3.431  0.2283  0.2202  0.0110
    1CHOL    R326268  14.925  11.628   3.605 -0.0127  0.1061 -0.0022
    1CHOL    R426269  14.933  11.876   3.760  0.2348  0.0607  0.0362
    1CHOL    R526270  15.096  11.733   3.736  0.0779 -0.1096  0.0461
    1CHOL    C126271  15.060  11.728   4.116  0.0124 -0.1395  0.0385
    1CHOL    C226272  15.027  11.773   4.587  0.1296 -0.1032  0.4637
    1CHOL   ROH26273   6.707   9.500   5.803 -0.1667  0.0406 -0.0272
    1CHOL    R126274   6.727   9.408   5.536 -0.2817 -0.0116 -0.0189
    1CHOL    R226275   6.510   9.394   5.366 -0.2964  0.2897 -0.0307
    1CHOL    R326276   6.667   9.546   5.204 -0.0643  0.0531 -0.0331
    1CHOL    R426277   6.417   9.512   5.055 -0.0623  0.3045 -0.0967
    1CHOL    R526278   6.618   9.467   4.983 -0.0915  0.0413 -0.0227
    1CHOL    C126279   6.510   9.723   4.721  0.2919  0.0911 -0.1374
    1CHOL    C226280   6.359  10.067   4.539 -0.1860  0.0552  0.1177
    1CHOL   ROH26281  13.198  20.427   6.604 -0.0476 -0.0749 -0.0255
    1CHOL    R126282  13.281  20.230   6.417  0.1618 -0.0558  0.0468
    1CHOL    R226283  13.119  20.142   6.212  0.2526 -0.3097  0.0887
    1CHOL    R326284  13.331  20.212   6.057  0.1727 -0.1405  0.0505
    1CHOL    R426285  13.148  20.075   5.874  0.1811 -0.1820  0.0557
    1CHOL    R526286  13.358  20.028   5.907  0.2234 -0.0821 -0.0207
    1CHOL    C126287  13.364  20.102   5.532  0.0643  0.0514  0.0007
    1CHOL    C226288  13.481  20.180   5.235  0.2740  0.0942 -0.1549
    1CHOL   ROH26289  10.505   7.046   3.901  0.0224 -0.1811  0.1434
    1CHOL    R126290  10.574   7.206   4.124  0.2344 -0.1856  0.0827
    1CHOL    R226291  10.438   7.192   4.365  0.1383  0.1640  0.0500
    1CHOL    R326292  10.687   7.149   4.465  0.0426 -0.2134  0.1447
    1CHOL    R426293  10.514   7.160   4.701 -0.0029  0.4363  0.1112
    1CHOL    R526294  10.694   7.278   4.667  0.2534  0.0412 -0.0126
    1CHOL    C126295  10.791   7.101   4.990 -0.1750  0.2405  0.2357
    1CHOL    C226296  10.827   7.164   5.409 -0.3035 -0.0992 -0.2659
    1CHOL   ROH26297  14.992  21.477   3.550 -0.2872  0.1401  0.0303
    1CHOL    R126298  14.880  21.295   3.736 -0.1736  0.1489  0.1082
    1CHOL    R226299  15.002  21.057   3.803 -0.1990  0.0868 -0.0608
    1CHOL    R326300  14.976  21.152   4.057  0.0920  0.0485 -0.0133
    1CHOL    R426301  15.058  20.873   4.090 -0.2712 -0.0810 -0.1530
    1CHOL    R526302  14.884  20.969   4.180 -0.0859  0.1354 -0.0138
    1CHOL    C126303  15.066  20.855   4.495 -0.0400 -0.2145 -0.1621
    1CHOL    C226304  15.444  20.818   4.491  0.1725 -0.1723  0.0042
    1CHOL   ROH26305  11.599   9.962   3.603  0.0078 -0.0793 -0.0974
    1CHOL    R126306  11.478   9.941   3.858  0.0602 -0.0497 -0.0690
    1CHOL    R226307  11.622   9.886   4.087  0.1284  0.1075 -0.0688
    1CHOL    R326308  11.503  10.113   4.178  0.0263  0.0809 -0.1366
    1CHOL    R426309  11.576   9.964   4.420 -0.0303  0.1278 -0.0954
    1CHOL    R526310  11.378  10.042   4.369 -0.0301  0.0654 -0.1814
    1CHOL    C126311  11.437  10.223   4.700 -0.2186  0.1147 -0.1746
    1CHOL    C226312  11.630  10.341   4.963 -0.0195  0.0695 -0.2075
    1CHOL   ROH26313   4.280   3.847   3.119  0.0831 -0.2582  0.0482
    1CHOL    R126314   4.062   3.930   3.279  0.1418 -0.0993  0.0467
    1CHOL    R226315   3.856   3.760   3.350 -0.0364  0.0769 -0.0425
    1CHOL    R326316   3.922   3.839   3.602  0.0066 -0.0755 -0.0041
    1CHOL    R426317   3.659   3.712   3.630 -0.0087 -0.0589 -0.0450
    1CHOL    R526318   3.714   3.912   3.697  0.0264 -0.1024  0.0633
    1CHOL    C126319   3.606   3.759   4.029  0.0478 -0.2811 -0.0104
    1CHOL    C226320   3.592   3.793   4.409 -0.2801 -0.1275 -0.2606
    1CHOL   ROH26321  13.274  13.856   6.598 -0.0351 -0.0428 -0.1943
    1CHOL    R126322  13.138  13.782   6.361 -0.0756  0.1764 -0.2424
    1CHOL    R226323  13.155  13.930   6.128  0.1976  0.1891 -0.2245
    1CHOL    R326324  13.231  13.691   6.021 -0.1013  0.0897 -0.2244
    1CHOL    R426325  13.184  13.866   5.789  0.3228  0.2013 -0.2166
    1CHOL    R526326  13.096  13.669   5.824 -0.0043  0.3330 -0.3152
    1CHOL    C126327  13.272  13.605   5.492  0.1150  0.1151 -0.2119
    1CHOL    C226328  13.045  13.661   5.205 -0.1082  0.0532 -0.1497
    1CHOL   ROH26329  16.485  12.066   6.357 -0.2029 -0.0744  0.0451
    1CHOL    R126330  16.317  12.110   6.133 -0.0958  0.0921 -0.0042
    1CHOL    R226331  16.392  12.271   5.921  0.2337 -0.1736 -0.0985
    1CHOL    R326332  16.335  12.049   5.774 -0.1552 -0.1700  0.0349
    1CHOL    R426333  16.368  12.261   5.576 -0.0990 -0.2777 -0.0767
    1CHOL    R526334  16.197  12.128   5.596 -0.2357 -0.0806  0.1341
    1CHOL    C126335  16.302  12.048   5.238 -0.6577 -0.3347  0.0613
    1CHOL    C226336  16.493  12.009   4.966  0.0932  0.2253  0.2013
    1CHOL   ROH26337  12.136  13.960   6.506  0.0459  0.0157 -0.1342
    1CHOL    R126338  12.227  13.933   6.239  0.0591 -0.0581 -0.1230
    1CHOL    R226339  12.269  13.688   6.120 -0.0078 -0.0927 -0.0785
    1CHOL    R326340  12.101  13.787   5.930  0.0375 -0.0719 -0.1073
    1CHOL    R426341  12.309  13.646   5.779  0.1613  0.0833 -0.0813
    1CHOL    R526342  12.246  13.853   5.751  0.0909  0.0704 -0.0123
    1CHOL    C126343  12.176  13.716   5.403  0.3023  0.2052 -0.1101
    1CHOL    C226344  12.188  13.484   5.127  0.3462  0.1285 -0.0076
    1CHOL   ROH26345  21.879  28.652   4.317 -0.1078  0.1604  0.1599
    1CHOL    R126346  22.015  28.898   4.293 -0.0863  0.1481  0.1508
    1CHOL    R226347  22.030  29.081   4.500 -0.0318  0.1369  0.1605
    1CHOL    R326348  22.297  29.061   4.456 -0.0424  0.1083  0.1132
    1CHOL    R426349  22.256  29.339   4.537 -0.0015  0.1234  0.0670
    1CHOL    R526350  22.357  29.270   4.357 -0.0428  0.0826  0.0630
    1CHOL    C126351  22.640  29.471   4.517  0.0060  0.0887 -0.0319
    1CHOL    C226352  22.964  29.639   4.399 -0.0819 -0.1038 -0.0490
    1CHOL   ROH26353  21.378  14.270   5.884 -0.1841  0.0893  0.0190
    1CHOL    R126354  21.240  14.187   5.651 -0.0120 -0.0516 -0.0335
    1CHOL    R226355  21.087  14.360   5.499 -0.2251 -0.2338 -0.0202
    1CHOL    R326356  21.245  14.271   5.297 -0.0521  0.0443 -0.0131
    1CHOL    R426357  20.994  14.345   5.167 -0.1879 -0.3781 -0.0260
    1CHOL    R526358  21.096  14.154   5.151  0.1492 -0.2120 -0.0270
    1CHOL    C126359  21.088  14.254   4.783 -0.0036 -0.2011 -0.0229
    1CHOL    C226360  20.895  14.541   4.706 -0.0402  0.0855 -0.1804
    1CHOL   ROH26361  21.102   1.767   5.492  0.0089 -0.0633  0.0343
    1CHOL    R126362  21.112   1.764   5.209  0.1001 -0.2253  0.0375
    1CHOL    R226363  21.042   1.543   5.059 -0.1671 -0.2114  0.1293
    1CHOL    R326364  20.876   1.719   4.936  0.1204 -0.0320 -0.0114
    1CHOL    R426365  20.849   1.471   4.782 -0.0658 -0.0091  0.0041
    1CHOL    R526366  20.898   1.668   4.703  0.2175 -0.0796  0.0126
    1CHOL    C126367  20.580   1.595   4.505  0.2632  0.2771 -0.2008
    1CHOL    C226368  20.517   1.503   4.164  0.2538  0.1991 -0.1089
    1CHOL   ROH26369  15.989  14.896   6.541 -0.1750  0.1391 -0.0057
    1CHOL    R126370  16.008  15.056   6.308 -0.2211  0.1815  0.0186
    1CHOL    R226371  16.196  15.010   6.111 -0.0362  0.4183  0.1269
    1CHOL    R326372  15.977  15.006   5.949  0.0622  0.1658 -0.0048
    1CHOL    R426373  16.203  15.049   5.767  0.1394  0.1255  0.0943
    1CHOL    R526374  16.023  15.172   5.783  0.0688  0.0437 -0.1204
    1CHOL    C126375  16.002  15.068   5.416  0.3338 -0.2820 -0.0482
    1CHOL    C226376  16.032  14.949   4.969 -0.0410 -0.0042 -0.1053
    1CHOL   ROH26377  21.471  16.461   6.427  0.4143  0.1084 -0.0902
    1CHOL    R126378  21.312  16.353   6.219  0.3567  0.0179 -0.0019
    1CHOL    R226379  21.096  16.489   6.111  0.2254 -0.0925  0.1014
    1CHOL    R326380  21.227  16.445   5.878  0.1324 -0.0369  0.0398
    1CHOL    R426381  20.944  16.444   5.804  0.1094 -0.1696  0.1702
    1CHOL    R526382  21.089  16.289   5.760  0.1548 -0.0987  0.1055
    1CHOL    C126383  20.979  16.378   5.406 -0.0457 -0.1626  0.1523
    1CHOL    C226384  20.817  16.305   5.154  0.1485  0.2184 -0.0982
    1CHOL   ROH26385  15.976  22.988   5.967  0.0076 -0.1258 -0.1241
    1CHOL    R126386  15.925  22.989   5.689  0.0313 -0.1236 -0.1281
    1CHOL    R226387  15.997  23.200   5.525  0.0057 -0.1046 -0.1116
    1CHOL    R326388  16.122  23.005   5.384  0.0540 -0.0744 -0.1115
    1CHOL    R426389  16.087  23.224   5.192  0.3144  0.0547 -0.0208
    1CHOL    R526390  16.025  23.017   5.166  0.2523  0.0924 -0.1961
    1CHOL    C126391  16.258  23.054   4.866  0.5395  0.1759  0.0322
    1CHOL    C226392  16.019  23.133   4.582  0.1232  0.1746 -0.1463
    1CHOL   ROH26393   5.712  16.165   2.887  0.0628 -0.2185 -0.1108
    1CHOL    R126394   5.915  16.250   3.065  0.0298 -0.2040 -0.0814
    1CHOL    R226395   5.947  16.514   3.138 -0.0202 -0.2103 -0.0541
    1CHOL    R326396   5.931  16.413   3.390 -0.0269 -0.2326 -0.0626
    1CHOL    R426397   6.016  16.691   3.427  0.1379 -0.2750 -0.0503
    1CHOL    R526398   6.115  16.514   3.506  0.0576 -0.3442 -0.0896
    1CHOL    C126399   6.041  16.699   3.831  0.2237 -0.3336 -0.0559
    1CHOL    C226400   6.326  16.841   4.022 -0.1114 -0.2432  0.1490
    1CHOL   ROH26401   2.736  14.591   5.742  0.0753  0.0433 -0.1414
    1CHOL    R126402   2.908  14.447   5.569 -0.0250 -0.1196 -0.1095
    1CHOL    R226403   2.814  14.274   5.375 -0.1519 -0.0511 -0.1163
    1CHOL    R326404   2.967  14.427   5.211  0.0062 -0.1887 -0.0995
    1CHOL    R426405   2.900  14.191   5.051 -0.1545 -0.1389 -0.0941
    1CHOL    R526406   3.099  14.270   5.088 -0.0996 -0.3019 -0.0637
    1CHOL    C126407   3.093  14.287   4.707 -0.0076 -0.3193 -0.0655
    1CHOL    C226408   2.974  14.158   4.364 -0.1610 -0.1188  0.1567
    1CHOL   ROH26409  13.138  18.811   6.430  0.1283 -0.0825  0.0606
    1CHOL    R126410  13.305  18.974   6.271  0.0358  0.0253  0.0728
    1CHOL    R226411  13.448  18.875   6.056  0.0933  0.1224  0.0683
    1CHOL    R326412  13.322  19.074   5.921 -0.0190  0.0601  0.0795
    1CHOL    R426413  13.453  18.914   5.713  0.1679  0.2048  0.0780
    1CHOL    R526414  13.472  19.129   5.743 -0.0040  0.2162  0.1365
    1CHOL    C126415  13.336  19.124   5.386  0.1060  0.1945  0.0941
    1CHOL    C226416  13.425  19.237   5.005  0.1103  0.0679 -0.0675
    1CHOL   ROH26417  18.809   4.663   3.795 -0.0651 -0.1397 -0.0015
    1CHOL    R126418  18.961   4.701   4.030  0.0095 -0.0685 -0.0602
    1CHOL    R226419  18.886   4.595   4.274  0.0188  0.1108  0.0234
    1CHOL    R326420  19.136   4.489   4.269 -0.0313 -0.0084  0.0234
    1CHOL    R426421  19.071   4.511   4.554  0.0426  0.1720  0.0258
    1CHOL    R526422  19.248   4.591   4.454  0.0575  0.0375 -0.0555
    1CHOL    C126423  19.414   4.363   4.711  0.0096  0.0958  0.0274
    1CHOL    C226424  19.543   4.698   4.881 -0.0574 -0.0550 -0.1703
    1CHOL   ROH26425  17.220  17.500   3.332  0.2902  0.0712  0.0154
    1CHOL    R126426  17.190  17.342   3.565 -0.0124  0.1001 -0.0015
    1CHOL    R226427  17.372  17.346   3.772 -0.1176 -0.1086  0.0920
    1CHOL    R326428  17.152  17.401   3.922 -0.1366  0.1351 -0.0189
    1CHOL    R426429  17.359  17.332   4.117 -0.3274 -0.2030  0.0826
    1CHOL    R526430  17.161  17.243   4.101 -0.4440  0.0589 -0.0602
    1CHOL    C126431  17.145  17.375   4.459 -0.4676 -0.0295 -0.0270
    1CHOL    C226432  17.187  17.192   4.768  0.1469  0.2189  0.2109
    1CHOL   ROH26433  20.327  12.466   2.964 -0.1178 -0.0646 -0.0792
    1CHOL    R126434  20.206  12.486   3.219 -0.1310  0.0408 -0.0922
    1CHOL    R226435  20.280  12.325   3.431 -0.2541  0.0126 -0.0652
    1CHOL    R326436  20.314  12.564   3.557 -0.1107  0.0068 -0.0919
    1CHOL    R426437  20.305  12.366   3.774 -0.0278  0.0229 -0.0816
    1CHOL    R526438  20.181  12.545   3.756  0.0113  0.0525 -0.0087
    1CHOL    C126439  20.350  12.614   4.091  0.2388  0.0234 -0.1161
    1CHOL    C226440  20.498  12.850   4.200 -0.0429  0.0805  0.1599
    1CHOL   ROH26441  19.354  21.933   5.001 -0.0176 -0.1154 -0.2057
    1CHOL    R126442  19.535  21.718   5.029 -0.0496 -0.1257 -0.0668
    1CHOL    R226443  19.462  21.475   5.139 -0.1426 -0.1148 -0.1013
    1CHOL    R326444  19.559  21.376   4.905  0.0128 -0.1346 -0.0295
    1CHOL    R426445  19.637  21.178   5.107 -0.0741 -0.0913  0.0428
    1CHOL    R526446  19.769  21.277   4.965 -0.0065 -0.0918  0.1076
    1CHOL    C126447  19.829  20.913   4.869  0.1117 -0.0958  0.1943
    1CHOL    C226448  20.048  20.654   5.086  0.3995 -0.1366  0.0809
    1CHOL   ROH26449  16.185  14.678   2.796  0.0257 -0.0032 -0.0484
    1CHOL    R126450  16.240  14.727   3.070 -0.0173  0.0065 -0.0429
    1CHOL    R226451  16.053  14.836   3.242 -0.0795 -0.1029 -0.0536
    1CHOL    R326452  16.108  14.615   3.390  0.0223 -0.0800 -0.0534
    1CHOL    R426453  16.028  14.817   3.586 -0.2057 -0.1327 -0.0631
    1CHOL    R526454  16.211  14.700   3.588 -0.1118 -0.0081 -0.0032
    1CHOL    C126455  16.064  14.598   3.925 -0.1834 -0.1285 -0.0685
    1CHOL    C226456  16.144  14.520   4.290  0.2393  0.1044  0.0347
    1CHOL   ROH26457   9.118   4.485   4.155 -0.0012  0.1090 -0.0571
    1CHOL    R126458   9.035   4.539   4.421  0.1905 -0.1381  0.0545
    1CHOL    R226459   8.772   4.595   4.487  0.2936  0.0949  0.2451
    1CHOL    R326460   8.806   4.390   4.661  0.1252 -0.1786 -0.0295
    1CHOL    R426461   8.554   4.515   4.742  0.2645 -0.0159  0.1892
    1CHOL    R526462   8.726   4.475   4.870  0.2599 -0.3633  0.1060
    1CHOL    C126463   8.459   4.275   5.055  0.0893 -0.3371 -0.1012
    1CHOL    C226464   8.186   4.479   5.236 -0.0524  0.1201 -0.1540
    1CHOL   ROH26465  11.291  14.935   3.212 -0.0756  0.0786  0.0379
    1CHOL    R126466  11.290  15.073   3.459 -0.0622  0.0278  0.0668
    1CHOL    R226467  11.059  15.111   3.606 -0.0651  0.0472  0.0600
    1CHOL    R326468  11.205  14.995   3.804 -0.1024 -0.0270  0.0442
    1CHOL    R426469  10.980  15.121   3.942 -0.0990 -0.0406  0.0549
    1CHOL    R526470  11.191  15.149   3.987 -0.1026 -0.0797  0.0868
    1CHOL    C126471  11.070  15.018   4.324 -0.1539 -0.1615  0.0370
    1CHOL    C226472  11.024  14.941   4.713 -0.0372  0.2621 -0.0220
    1CHOL   ROH26473  15.387  18.592   6.511  0.1266  0.0923  0.0626
    1CHOL    R126474  15.362  18.579   6.230 -0.0763  0.0699  0.0798
    1CHOL    R226475  15.535  18.710   6.059 -0.1823  0.0369 -0.0573
    1CHOL    R326476  15.565  18.462   5.951 -0.2865  0.0235 -0.0558
    1CHOL    R426477  15.588  18.646   5.723  0.0834  0.0300 -0.0161
    1CHOL    R526478  15.453  18.476   5.740 -0.0756  0.1409 -0.1625
    1CHOL    C126479  15.647  18.376   5.427  0.1405  0.0136  0.0093
    1CHOL    C226480  15.637  18.328   5.031  0.1443 -0.3219 -0.0375
    1CHOL   ROH26481   4.899  27.154   3.675  0.1079  0.1023 -0.0486
    1CHOL    R126482   4.839  27.073   3.940  0.0798 -0.0010 -0.0862
    1CHOL    R226483   4.987  27.155   4.157  0.0041 -0.0163 -0.0301
    1CHOL    R326484   4.745  27.237   4.251 -0.0446 -0.1311 -0.0537
    1CHOL    R426485   4.910  27.199   4.491  0.0261  0.1656 -0.0478
    1CHOL    R526486   4.714  27.110   4.453  0.0843 -0.0126  0.0439
    1CHOL    C126487   4.639  27.301   4.774 -0.0068  0.1637 -0.0801
    1CHOL    C226488   4.312  27.502   4.981 -0.0333  0.1007  0.0413
    1CHOL   ROH26489  14.519  12.654   6.611  0.1370  0.0878  0.0781
    1CHOL    R126490  14.603  12.633   6.342  0.0941 -0.1664  0.0819
    1CHOL    R226491  14.504  12.442   6.169 -0.2704 -0.0501  0.1546
    1CHOL    R326492  14.448  12.657   6.014  0.1252  0.0060  0.0786
    1CHOL    R426493  14.509  12.442   5.824 -0.2640 -0.1832  0.1539
    1CHOL    R526494  14.601  12.640   5.830  0.1019 -0.3417  0.0843
    1CHOL    C126495  14.459  12.645   5.476  0.1112 -0.2080  0.0822
    1CHOL    C226496  14.480  12.604   5.082 -0.0848 -0.2220  0.1215
    1CHOL   ROH26497  12.203  18.893   6.316  0.0595 -0.0295  0.0589
    1CHOL    R126498  12.292  18.751   6.088  0.0389  0.0571 -0.0046
    1CHOL    R226499  12.200  18.806   5.833 -0.0385  0.1075  0.0291
    1CHOL    R326500  12.465  18.831   5.778 -0.0582  0.1915 -0.0237
    1CHOL    R426501  12.335  18.809   5.516 -0.0906  0.0793  0.0075
    1CHOL    R526502  12.500  18.686   5.590 -0.0350  0.1606  0.0079
    1CHOL    C126503  12.663  18.834   5.278 -0.1395  0.1418 -0.0546
    1CHOL    C226504  12.529  18.842   4.915 -0.0337 -0.0726  0.2272
    1CHOL   ROH26505  14.308   9.618   6.887  0.1778  0.2094 -0.0599
    1CHOL    R126506  14.414   9.509   6.648  0.0829  0.1945 -0.0955
    1CHOL    R226507  14.258   9.461   6.425 -0.0026  0.1949 -0.0351
    1CHOL    R326508  14.445   9.615   6.301 -0.0398  0.1792 -0.1119
    1CHOL    R426509  14.321   9.460   6.085  0.1860 -0.1675 -0.0051
    1CHOL    R526510  14.534   9.474   6.129  0.1550  0.0316  0.1023
    1CHOL    C126511  14.533   9.605   5.771  0.2609 -0.3932 -0.0597
    1CHOL    C226512  14.745   9.579   5.507  0.5714  0.0945 -0.0311
    1CHOL   ROH26513  20.847  10.676   3.620 -0.0365  0.0601 -0.0498
    1CHOL    R126514  20.976  10.912   3.707 -0.0917  0.0753 -0.0093
    1CHOL    R226515  20.850  11.101   3.865 -0.1220 -0.0029  0.0600
    1CHOL    R326516  21.064  11.062   4.027 -0.0843  0.0186  0.0156
    1CHOL    R426517  20.928  11.296   4.139 -0.1493 -0.0619  0.1101
    1CHOL    R526518  21.138  11.283   4.082 -0.1520  0.0276  0.0740
    1CHOL    C126519  21.174  11.373   4.451 -0.1296 -0.0761  0.0975
    1CHOL    C226520  21.300  11.581   4.636  0.1903 -0.0402  0.0035
    1CHOL   ROH26521  11.945   8.729   3.753 -0.3687 -0.0966  0.1565
    1CHOL    R126522  12.033   8.721   4.022 -0.3396 -0.0026  0.1503
    1CHOL    R226523  11.857   8.707   4.235 -0.3115 -0.2695  0.1601
    1CHOL    R326524  12.006   8.490   4.302 -0.0009 -0.0734  0.1289
    1CHOL    R426525  11.954   8.627   4.557 -0.1644 -0.1590  0.1443
    1CHOL    R526526  12.149   8.568   4.478 -0.0873  0.1142  0.1189
    1CHOL    C126527  12.150   8.375   4.807  0.2129  0.0893  0.1059
    1CHOL    C226528  12.147   8.163   5.057  0.3168 -0.2862  0.0458
    1CHOL   ROH26529  25.502  15.161   2.872  0.1487  0.3708  0.0663
    1CHOL    R126530  25.631  15.045   3.096  0.0903  0.1441 -0.0139
    1CHOL    R226531  25.803  15.189   3.259  0.1857 -0.0653  0.0748
    1CHOL    R326532  25.637  15.101   3.456  0.1410 -0.0953  0.0238
    1CHOL    R426533  25.906  15.068   3.566  0.1108 -0.0334  0.1130
    1CHOL    R526534  25.752  14.915   3.552  0.1492 -0.0668  0.0675
    1CHOL    C126535  25.810  14.915   3.929  0.0249 -0.0430  0.0873
    1CHOL    C226536  26.018  14.695   4.070  0.0230  0.1687 -0.1630
    1CHOL   ROH26537  14.336   9.180   3.318  0.0406 -0.0903  0.0894
    1CHOL    R126538  14.401   9.277   3.576  0.0397 -0.0883  0.0890
    1CHOL    R226539  14.317   9.524   3.668  0.0511 -0.0812  0.0818
    1CHOL    R326540  14.218   9.377   3.874  0.0378 -0.0715  0.0821
    1CHOL    R426541  14.322   9.620   4.000  0.1846 -0.1412  0.0977
    1CHOL    R526542  14.371   9.415   4.054  0.1039 -0.1741  0.0481
    1CHOL    C126543  14.232   9.537   4.386  0.2498 -0.1671  0.1073
    1CHOL    C226544  14.213   9.569   4.650 -0.2661 -0.1287 -0.1181
    1CHOL   ROH26545  15.347  15.175   2.972 -0.0034 -0.0377 -0.1170
    1CHOL    R126546  15.189  15.296   3.173 -0.1805 -0.1440 -0.1883
    1CHOL    R226547  14.951  15.187   3.260  0.0077 -0.4870 -0.0654
    1CHOL    R326548  15.069  15.206   3.505  0.0269 -0.0948 -0.0995
    1CHOL    R426549  14.792  15.124   3.561  0.1637 -0.4687  0.0211
    1CHOL    R526550  14.897  15.295   3.646 -0.0809 -0.2330 -0.1471
    1CHOL    C126551  14.810  15.105   3.965  0.2725 -0.0898  0.0395
    1CHOL    C226552  14.648  15.090   4.245 -0.0285  0.0512 -0.4309
    1CHOL   ROH26553  10.965  20.287   3.040  0.0325  0.2570  0.0591
    1CHOL    R126554  10.988  20.270   3.321  0.0501  0.1337  0.0511
    1CHOL    R226555  10.938  20.485   3.489  0.0462  0.0582  0.1507
    1CHOL    R326556  10.766  20.311   3.607  0.0637 -0.0059  0.0818
    1CHOL    R426557  10.775  20.539   3.789 -0.0952 -0.0058  0.0860
    1CHOL    R526558  10.811  20.331   3.841 -0.0389  0.0089  0.0990
    1CHOL    C126559  10.519  20.407   4.074 -0.1611 -0.1033 -0.0164
    1CHOL    C226560  10.322  20.295   4.310  0.0136  0.2933 -0.1545
    1CHOL   ROH26561  17.058  15.373   6.474  0.0441  0.0434 -0.1801
    1CHOL    R126562  17.175  15.399   6.217  0.0023  0.0345 -0.2007
    1CHOL    R226563  17.057  15.297   5.989 -0.0518  0.0550 -0.1845
    1CHOL    R326564  17.085  15.552   5.899 -0.0351  0.0539 -0.1803
    1CHOL    R426565  17.050  15.391   5.657  0.0454  0.0509 -0.1877
    1CHOL    R526566  17.213  15.530   5.698  0.0262  0.0572 -0.1408
    1CHOL    C126567  17.072  15.686   5.379  0.1179  0.0476 -0.1855
    1CHOL    C226568  17.136  15.817   5.012  0.0419  0.2669  0.3283
    1CHOL   ROH26569  20.390  16.506   3.123  0.2484 -0.2267  0.0117
    1CHOL    R126570  20.466  16.515   3.395  0.0097 -0.0948  0.0781
    1CHOL    R226571  20.325  16.658   3.585 -0.2412 -0.1133 -0.0838
    1CHOL    R326572  20.319  16.418   3.714 -0.2117 -0.0786 -0.0192
    1CHOL    R426573  20.329  16.617   3.928 -0.3089 -0.0258 -0.0728
    1CHOL    R526574  20.463  16.448   3.902 -0.2648  0.0032  0.0047
    1CHOL    C126575  20.325  16.368   4.249 -0.3207  0.0578 -0.0058
    1CHOL    C226576  20.450  16.184   4.615 -0.0379  0.0580 -0.1067
    1CHOL   ROH26577   2.783   5.548   5.265 -0.1405  0.0408 -0.0461
    1CHOL    R126578   2.945   5.570   5.033 -0.0750 -0.3131 -0.0400
    1CHOL    R226579   3.110   5.786   4.987 -0.3612 -0.1760 -0.5098
    1CHOL    R326580   3.301   5.594   4.961 -0.0739  0.0083  0.0646
    1CHOL    R426581   3.414   5.830   4.829 -0.3669 -0.1657 -0.5173
    1CHOL    R526582   3.393   5.631   4.743 -0.0552 -0.4364 -0.0081
    1CHOL    C126583   3.770   5.675   4.712 -0.1005  0.0132  0.0176
    1CHOL    C226584   3.951   5.847   4.409  0.0671 -0.2645 -0.1824
    1CHOL   ROH26585   2.400  27.679   3.690 -0.0776  0.0674  0.0319
    1CHOL    R126586   2.571  27.753   3.903 -0.0638  0.1499 -0.0075
    1CHOL    R226587   2.570  28.007   4.013 -0.2742  0.1058  0.0979
    1CHOL    R326588   2.531  27.871   4.245 -0.0434 -0.0324  0.0592
    1CHOL    R426589   2.621  28.137   4.329 -0.3928  0.0699  0.1320
    1CHOL    R526590   2.707  27.947   4.389 -0.1157  0.1637  0.0494
    1CHOL    C126591   2.614  28.086   4.731 -0.2451 -0.0806  0.1155
    1CHOL    C226592   2.575  28.463   4.940 -0.0732  0.1365 -0.0029
    1CHOL   ROH26593  11.604  13.270   3.083  0.1167  0.0570 -0.0622
    1CHOL    R126594  11.515  13.451   3.281  0.1070  0.0490 -0.0593
    1CHOL    R226595  11.459  13.374   3.540  0.1172  0.0434 -0.0593
    1CHOL    R326596  11.635  13.571   3.603  0.1034  0.0558 -0.0601
    1CHOL    R426597  11.472  13.536   3.845 -0.0110  0.1640 -0.1172
    1CHOL    R526598  11.508  13.723   3.738  0.0512  0.1195 -0.1781
    1CHOL    C126599  11.645  13.817   4.081 -0.0985  0.2460 -0.1518
    1CHOL    C226600  11.715  13.758   4.439 -0.4114 -0.0832 -0.1664
    1CHOL   ROH26601  19.257  14.930   6.522 -0.0558 -0.2207  0.1003
    1CHOL    R126602  19.296  14.917   6.242 -0.0766 -0.2359  0.0988
    1CHOL    R226603  19.127  14.778   6.074 -0.2431 -0.0191  0.0899
    1CHOL    R326604  19.112  15.017   5.945  0.0320  0.0138  0.1110
    1CHOL    R426605  19.039  14.819   5.742 -0.2371  0.1059  0.1023
    1CHOL    R526606  19.194  14.971   5.724 -0.0472 -0.0756  0.0955
    1CHOL    C126607  18.974  15.066   5.428  0.0250  0.2094  0.1293
    1CHOL    C226608  18.949  15.218   5.009 -0.2858 -0.1250  0.1261
    1CHOL   ROH26609  18.809   3.317   6.180  0.0716  0.0602  0.0650
    1CHOL    R126610  18.766   3.244   5.909 -0.0685  0.0155  0.0984
    1CHOL    R226611  18.710   3.430   5.712 -0.0924 -0.0089  0.0824
    1CHOL    R326612  18.923   3.315   5.589 -0.1828 -0.1050  0.0147
    1CHOL    R426613  18.724   3.348   5.377 -0.1192  0.2783  0.0077
    1CHOL    R526614  18.826   3.164   5.431 -0.3052  0.1279 -0.1397
    1CHOL    C126615  18.932   3.192   5.066 -0.2196  0.3552 -0.0992
    1CHOL    C226616  18.831   2.891   4.774  0.2457  0.0221 -0.2710
    1CHOL   ROH26617  14.454  18.385   6.076  0.1038 -0.1213 -0.0700
    1CHOL    R126618  14.568  18.361   5.818  0.0268  0.0252 -0.1196
    1CHOL    R226619  14.460  18.485   5.596 -0.0671  0.1156 -0.0286
    1CHOL    R326620  14.711  18.585   5.570 -0.0941  0.1737 -0.0551
    1CHOL    R426621  14.596  18.604   5.301 -0.0575 -0.0278 -0.0822
    1CHOL    R526622  14.784  18.509   5.356 -0.0392  0.0626  0.0047
    1CHOL    C126623  14.911  18.768   5.106 -0.0771 -0.0567 -0.1382
    1CHOL    C226624  15.080  18.533   5.009 -0.1489  0.2535  0.1389
    1CHOL   ROH26625  26.218  19.639   5.028  0.1715  0.2325 -0.3989
    1CHOL    R126626  26.109  19.490   4.813  0.0086  0.2378 -0.3210
    1CHOL    R226627  25.936  19.278   4.852  0.2190  0.0895 -0.1813
    1CHOL    R326628  25.777  19.420   4.682 -0.1118  0.0377  0.0756
    1CHOL    R426629  25.743  19.140   4.601  0.2313  0.0586 -0.1740
    1CHOL    R526630  25.799  19.307   4.472 -0.1006  0.2746 -0.0554
    1CHOL    C126631  25.480  19.192   4.296 -0.0722 -0.0083  0.0716
    1CHOL    C226632  25.104  19.067   4.178 -0.0525  0.1424 -0.1862
    1CHOL   ROH26633  10.458  19.242   5.905 -0.0680 -0.0242 -0.1591
    1CHOL    R126634  10.577  19.222   5.648 -0.0125  0.0221 -0.1369
    1CHOL    R226635  10.428  19.210   5.416  0.0364 -0.0320 -0.1627
    1CHOL    R326636  10.583  19.421   5.344 -0.0291  0.0262 -0.1359
    1CHOL    R426637  10.567  19.254   5.103 -0.0602  0.0937 -0.1890
    1CHOL    R526638  10.749  19.325   5.199 -0.0464  0.1035 -0.2127
    1CHOL    C126639  10.794  19.477   4.852 -0.1779  0.2218 -0.1792
    1CHOL    C226640  11.032  19.221   4.721 -0.0111  0.0532  0.1103
    1CHOL   ROH26641  20.944  13.551   6.055 -0.3629  0.0562  0.0518
    1CHOL    R126642  21.012  13.587   5.783 -0.2955  0.1767  0.0847
    1CHOL    R226643  21.061  13.376   5.612 -0.0481  0.2564  0.0549
    1CHOL    R326644  20.871  13.497   5.460 -0.0998  0.1238  0.0116
    1CHOL    R426645  21.010  13.317   5.275  0.0471  0.1915  0.0511
    1CHOL    R526646  20.976  13.530   5.248 -0.0827  0.1705  0.0261
    1CHOL    C126647  20.801  13.396   4.937  0.0543  0.0294  0.0082
    1CHOL    C226648  20.954  13.319   4.553  0.0962  0.1194 -0.2017
    1CHOL   ROH26649  10.174   9.163   3.606  0.1605  0.1395  0.0663
    1CHOL    R126650  10.005   9.209   3.829  0.1252 -0.0399  0.0789
    1CHOL    R226651  10.009   9.048   4.054  0.1822 -0.1469  0.0089
    1CHOL    R326652  10.048   9.285   4.182  0.0725 -0.1870  0.1162
    1CHOL    R426653  10.001   9.091   4.397 -0.0734 -0.2494  0.0173
    1CHOL    R526654   9.895   9.279   4.366 -0.0596 -0.2512  0.0005
    1CHOL    C126655  10.033   9.338   4.717 -0.3252 -0.3467  0.1228
    1CHOL    C226656   9.891   9.342   4.997 -0.1013  0.1965  0.1703
    1CHOL   ROH26657  10.732   7.470   6.855 -0.0795 -0.1186  0.0262
    1CHOL    R126658  10.624   7.369   6.613 -0.0840  0.1019 -0.0649
    1CHOL    R226659  10.746   7.408   6.368  0.0849  0.0457  0.0134
    1CHOL    R326660  10.728   7.137   6.353 -0.2395  0.0677 -0.0994
    1CHOL    R426661  10.772   7.224   6.076  0.3263  0.1181 -0.0136
    1CHOL    R526662  10.610   7.096   6.149  0.0345  0.2931 -0.3143
    1CHOL    C126663  10.770   6.862   5.893  0.1625  0.1809 -0.1354
    1CHOL    C226664  11.092   6.840   5.757  0.1534  0.1943  0.2706
    1CHOL   ROH26665  18.505   2.071   6.139 -0.1794 -0.0162  0.1440
    1CHOL    R126666  18.559   2.037   5.863  0.0648 -0.1001  0.2006
    1CHOL    R226667  18.535   2.242   5.680 -0.1569 -0.2507  0.0607
    1CHOL    R326668  18.792   2.176   5.620  0.0031  0.1377  0.2732
    1CHOL    R426669  18.686   2.295   5.374 -0.1172 -0.3667  0.0591
    1CHOL    R526670  18.782   2.100   5.393  0.2395 -0.1804  0.3578
    1CHOL    C126671  19.015   2.264   5.139  0.0562 -0.0696  0.2577
    1CHOL    C226672  19.125   2.489   4.719  0.1074  0.0155 -0.1117
    1CHOL   ROH26673  27.390  14.686   5.284  0.3281  0.1063  0.0567
    1CHOL    R126674  27.346  14.869   5.073  0.1390 -0.0436 -0.0378
    1CHOL    R226675  27.546  15.030   4.971 -0.0579  0.2339 -0.0051
    1CHOL    R326676  27.471  14.918   4.735  0.2263  0.0146  0.0032
    1CHOL    R426677  27.680  15.110   4.662 -0.1286  0.4143  0.0103
    1CHOL    R526678  27.480  15.099   4.578 -0.0887 -0.0071 -0.0432
    1CHOL    C126679  27.687  15.051   4.261  0.0972  0.3135  0.0271
    1CHOL    C226680  27.760  15.076   3.812  0.1565 -0.2163  0.1776
    1CHOL   ROH26681  10.271   6.711   4.183  0.2114 -0.0053 -0.0267
    1CHOL    R126682  10.401   6.724   4.434  0.0192  0.0865  0.0721
    1CHOL    R226683  10.273   6.806   4.664 -0.2387 -0.0912  0.0052
    1CHOL    R326684  10.363   6.569   4.761 -0.0564 -0.0195  0.0107
    1CHOL    R426685  10.260   6.712   4.996  0.0810 -0.0046  0.0445
    1CHOL    R526686  10.459   6.624   4.973  0.0933  0.0789 -0.0885
    1CHOL    C126687  10.337   6.434   5.281  0.4384  0.1131  0.0725
    1CHOL    C226688  10.099   6.132   5.489 -0.1453  0.1754  0.3576
    1CHOL   ROH26689   7.106  18.103   2.711 -0.1142 -0.1474  0.0301
    1CHOL    R126690   7.254  18.085   2.952  0.1778  0.1620 -0.1184
    1CHOL    R226691   7.389  18.301   3.060 -0.2677  0.4931 -0.1984
    1CHOL    R326692   7.243  18.240   3.281  0.0955  0.0438 -0.0641
    1CHOL    R426693   7.469  18.395   3.383 -0.1863  0.6148 -0.2528
    1CHOL    R526694   7.405  18.198   3.451  0.3873  0.4141 -0.2351
    1CHOL    C126695   7.378  18.393   3.778  0.2022  0.2639 -0.1585
    1CHOL    C226696   7.605  18.360   4.044  0.2340 -0.2391 -0.1608
    1CHOL   ROH26697  19.117  15.046   3.109  0.0212  0.0091 -0.1618
    1CHOL    R126698  18.974  14.968   3.340 -0.0924  0.0996 -0.2006
    1CHOL    R226699  19.044  14.747   3.491 -0.3264  0.0032 -0.2305
    1CHOL    R326700  19.047  14.927   3.695 -0.1900 -0.0377 -0.1957
    1CHOL    R426701  19.094  14.667   3.823 -0.4776 -0.1133 -0.2342
    1CHOL    R526702  18.941  14.812   3.876 -0.3453  0.0325 -0.2406
    1CHOL    C126703  19.127  14.790   4.208 -0.4376 -0.2194 -0.2036
    1CHOL    C226704  19.270  14.681   4.495  0.1080 -0.0919 -0.0639
    1CHOL   ROH26705  14.267  20.483   3.184 -0.1038 -0.2077  0.0294
    1CHOL    R126706  14.297  20.547   3.458 -0.0720 -0.1243  0.0067
    1CHOL    R226707  14.099  20.500   3.645 -0.0852  0.0185  0.0283
    1CHOL    R326708  14.297  20.365   3.774 -0.1354 -0.0140  0.0712
    1CHOL    R426709  14.074  20.373   3.965 -0.0770  0.2872  0.1379
    1CHOL    R526710  14.279  20.438   4.001 -0.0185  0.1794  0.0220
    1CHOL    C126711  14.245  20.172   4.273 -0.1193  0.4131  0.2418
    1CHOL    C226712  14.067  20.097   4.558  0.0891  0.1784 -0.3947
    1CHOL   ROH26713   1.973  15.647   3.679  0.0792  0.1132 -0.0917
    1CHOL    R126714   2.238  15.556   3.720  0.0625  0.0925 -0.0190
    1CHOL    R226715   2.345  15.516   3.972  0.0160  0.1486  0.0173
    1CHOL    R326716   2.397  15.268   3.874 -0.0043  0.1163  0.0909
    1CHOL    R426717   2.582  15.299   4.098 -0.0218  0.1476  0.0847
    1CHOL    R526718   2.634  15.244   3.895 -0.0149  0.0869  0.1112
    1CHOL    C126719   2.770  14.940   4.080 -0.0630  0.1167  0.1931
    1CHOL    C226720   3.123  14.699   4.202 -0.1180  0.1601  0.1072
    1CHOL   ROH26721  18.032  23.695   5.214  0.0486 -0.0440  0.0502
    1CHOL    R126722  18.240  23.850   5.101 -0.1041  0.1822  0.0746
    1CHOL    R226723  18.322  24.090   5.210 -0.0194  0.0136  0.3968
    1CHOL    R326724  18.566  23.972   5.205 -0.0013  0.0488 -0.0869
    1CHOL    R426725  18.622  24.255   5.260  0.0115 -0.0328  0.3629
    1CHOL    R526726  18.709  24.133   5.101 -0.1420  0.2608  0.0417
    1CHOL    C126727  19.026  24.239   5.285  0.0466 -0.0263 -0.1109
    1CHOL    C226728  19.400  24.414   5.252  0.0539 -0.2488  0.4752
    1CHOL   ROH26729  19.864  27.868   3.886  0.2755 -0.0512 -0.1142
    1CHOL    R126730  19.681  27.836   4.100  0.3115 -0.0588 -0.0841
    1CHOL    R226731  19.752  27.875   4.364  0.3504 -0.0447 -0.0949
    1CHOL    R326732  19.540  28.046   4.361  0.3373 -0.0610 -0.0693
    1CHOL    R426733  19.574  27.973   4.643  0.3403 -0.0981 -0.0826
    1CHOL    R526734  19.391  27.957   4.526  0.3434 -0.0949 -0.0839
    1CHOL    C126735  19.271  28.190   4.804  0.3223 -0.1446 -0.0513
    1CHOL    C226736  19.060  28.261   5.163 -0.1701  0.0040 -0.1543
    1CHOL   ROH26737   8.639   8.676   3.153  0.0798 -0.0819  0.0389
    1CHOL    R126738   8.542   8.809   3.383 -0.0326 -0.0426 -0.0297
    1CHOL    R226739   8.341   8.704   3.543  0.1144 -0.1754  0.0771
    1CHOL    R326740   8.524   8.740   3.740  0.1156  0.1658  0.0183
    1CHOL    R426741   8.265   8.745   3.877  0.1460 -0.0779  0.0722
    1CHOL    R526742   8.421   8.897   3.889 -0.0412  0.1220 -0.0481
    1CHOL    C126743   8.393   8.804   4.257  0.1655  0.2991  0.0140
    1CHOL    C226744   8.363   8.566   4.521 -0.0253 -0.0720  0.0031
    1CHOL   ROH26745  18.889  22.731   5.954 -0.0767  0.1018  0.0944
    1CHOL    R126746  18.983  22.671   5.694  0.0107  0.2123  0.1001
    1CHOL    R226747  18.848  22.503   5.521  0.2289  0.0320  0.1018
    1CHOL    R326748  18.865  22.716   5.352 -0.0350  0.0504  0.0934
    1CHOL    R426749  18.783  22.492   5.182  0.3919 -0.1049  0.0735
    1CHOL    R526750  18.953  22.624   5.150  0.2028  0.1679  0.1381
    1CHOL    C126751  18.761  22.685   4.826  0.2391 -0.1674  0.0490
    1CHOL    C226752  18.729  22.608   4.444 -0.3164 -0.1169 -0.0847
    1CHOL   ROH26753   9.395   2.353   4.161 -0.1922  0.1797  0.1304
    1CHOL    R126754   9.221   2.255   4.362 -0.1412  0.1325  0.1504
    1CHOL    R226755   9.223   1.992   4.445 -0.1653  0.1010  0.0378
    1CHOL    R326756   9.256   2.104   4.691 -0.0592 -0.0119  0.0775
    1CHOL    R426757   9.126   1.846   4.743 -0.0103 -0.0563  0.0144
    1CHOL    R526758   9.058   2.042   4.811  0.0001 -0.0914  0.1415
    1CHOL    C126759   9.100   1.866   5.148  0.1794 -0.2539  0.0380
    1CHOL    C226760   9.065   1.567   5.367 -0.1043  0.0282  0.0581
    1CHOL   ROH26761  16.784  20.433   3.526  0.0998  0.1474 -0.0767
    1CHOL    R126762  16.813  20.400   3.806 -0.0608 -0.0172 -0.0775
    1CHOL    R226763  16.960  20.575   3.962  0.0616 -0.2468  0.0721
    1CHOL    R326764  16.729  20.590   4.104  0.0106 -0.0644 -0.0275
    1CHOL    R426765  16.913  20.770   4.243  0.0590 -0.1353 -0.0053
    1CHOL    R526766  16.800  20.607   4.332 -0.0763 -0.0397 -0.0033
    1CHOL    C126767  16.669  20.898   4.540  0.0095  0.1008 -0.1439
    1CHOL    C226768  16.590  21.211   4.820  0.1144  0.0456  0.0110
    1CHOL   ROH26769  10.901   9.602   6.909 -0.1074  0.1425 -0.0248
    1CHOL    R126770  10.716   9.480   6.732 -0.0446 -0.0208  0.0183
    1CHOL    R226771  10.672   9.573   6.475 -0.0962 -0.1350 -0.0222
    1CHOL    R326772  10.730   9.317   6.407  0.0465 -0.1298  0.0787
    1CHOL    R426773  10.564   9.416   6.187  0.0446 -0.3062  0.0178
    1CHOL    R526774  10.530   9.236   6.304  0.1162 -0.2756  0.0703
    1CHOL    C126775  10.556   9.083   5.956  0.2606 -0.4009  0.1358
    1CHOL    C226776  10.546   9.194   5.652 -0.2276  0.1259  0.1546
    1CHOL   ROH26777  14.342  14.735   6.410  0.0990  0.0447  0.2425
    1CHOL    R126778  14.470  14.709   6.159  0.0019 -0.0130  0.1986
    1CHOL    R226779  14.378  14.539   5.961 -0.1212  0.0025  0.2438
    1CHOL    R326780  14.382  14.765   5.810 -0.1038 -0.0102  0.2249
    1CHOL    R426781  14.389  14.545   5.616 -0.1446 -0.0302  0.2422
    1CHOL    R526782  14.529  14.712   5.628 -0.1219 -0.0452  0.2188
    1CHOL    C126783  14.399  14.761   5.273 -0.1419 -0.0610  0.2236
    1CHOL    C226784  14.167  14.797   4.950  0.2797 -0.0799  0.1083
    1CHOL   ROH26785  19.459  19.068   6.768 -0.1840  0.1350 -0.0744
    1CHOL    R126786  19.418  19.008   6.494 -0.0775  0.1075 -0.0831
    1CHOL    R226787  19.174  19.042   6.369 -0.0541 -0.0201 -0.1477
    1CHOL    R326788  19.320  19.192   6.195 -0.0866  0.0470 -0.1202
    1CHOL    R426789  19.103  19.080   6.033 -0.0424 -0.0280 -0.1522
    1CHOL    R526790  19.317  19.066   5.991 -0.0241  0.0509 -0.1314
    1CHOL    C126791  19.198  19.242   5.674 -0.0665  0.0302 -0.1291
    1CHOL    C226792  19.385  19.021   5.393 -0.1044 -0.1210  0.1586
    1CHOL   ROH26793  28.277  25.208   6.179  0.1968  0.1676 -0.2121
    1CHOL    R126794  28.146  25.154   5.935  0.1311 -0.0401 -0.1326
    1CHOL    R226795  28.127  25.340   5.732 -0.2067 -0.0994 -0.1589
    1CHOL    R326796  28.238  25.141   5.582 -0.0408  0.0074 -0.1803
    1CHOL    R426797  28.168  25.350   5.389 -0.0669  0.0417 -0.1390
    1CHOL    R526798  28.109  25.140   5.380  0.0436  0.0115 -0.2359
    1CHOL    C126799  28.296  25.170   5.049  0.1705  0.2237 -0.1475
    1CHOL    C226800  28.082  25.018   4.695 -0.3462 -0.1900  0.3036
    1CHOL   ROH26801  22.245   6.823   4.051 -0.1719 -0.2056 -0.1626
    1CHOL    R126802  22.423   6.608   4.103 -0.0154 -0.0590 -0.0698
    1CHOL    R226803  22.649   6.637   4.259 -0.1407  0.1195  0.1039
    1CHOL    R326804  22.541   6.429   4.397 -0.0701  0.0085 -0.0100
    1CHOL    R426805  22.831   6.389   4.418 -0.0771  0.1074  0.0103
    1CHOL    R526806  22.685   6.244   4.348 -0.0011  0.0894 -0.0732
    1CHOL    C126807  22.835   6.050   4.640  0.0265 -0.0039 -0.1513
    1CHOL    C226808  23.089   5.753   4.820 -0.1200 -0.1439 -0.1951
    1CHOL   ROH26809  15.795  21.479   6.193 -0.1047  0.0792  0.1621
    1CHOL    R126810  15.718  21.444   5.923 -0.1484  0.1319  0.1678
    1CHOL    R226811  15.583  21.638   5.780  0.0566  0.2624  0.1489
    1CHOL    R326812  15.788  21.605   5.604  0.0199  0.0223  0.1481
    1CHOL    R426813  15.593  21.772   5.462  0.1265  0.0836  0.0744
    1CHOL    R526814  15.680  21.585   5.391 -0.0115 -0.0173  0.1678
    1CHOL    C126815  15.791  21.819   5.111  0.1327 -0.2461  0.0303
    1CHOL    C226816  15.683  21.851   4.704 -0.0338 -0.1042 -0.2888
    1CHOL   ROH26817  11.371   9.466   3.614  0.2230 -0.2297 -0.1173
    1CHOL    R126818  11.256   9.441   3.871  0.0833 -0.1935 -0.1748
    1CHOL    R226819  11.400   9.477   4.103 -0.0253 -0.2205 -0.0966
    1CHOL    R326820  11.203   9.656   4.160 -0.0119 -0.1696 -0.2116
    1CHOL    R426821  11.335   9.607   4.417  0.0017  0.0270 -0.1912
    1CHOL    R526822  11.122   9.589   4.375  0.0030  0.0036 -0.1552
    1CHOL    C126823  11.112   9.850   4.653  0.0297  0.2189 -0.3542
    1CHOL    C226824  11.034   9.742   5.031 -0.1278 -0.4281 -0.1389
    1CHOL   ROH26825  25.766  17.709   3.156 -0.0053 -0.0193 -0.0201
    1CHOL    R126826  25.876  17.598   3.391 -0.1938  0.1424  0.1499
    1CHOL    R226827  25.726  17.553   3.619 -0.4785 -0.0653 -0.0649
    1CHOL    R326828  25.822  17.300   3.593 -0.0772  0.0671  0.0681
    1CHOL    R426829  25.664  17.294   3.840 -0.5626 -0.1991 -0.2441
    1CHOL    R526830  25.871  17.232   3.818 -0.4266  0.0903  0.1526
    1CHOL    C126831  25.718  16.906   3.944 -0.2349 -0.1526 -0.2236
    1CHOL    C226832  25.530  16.579   4.127  0.1176 -0.2009  0.0808
    1CHOL   ROH26833  21.826  11.228   3.291  0.0655 -0.1199 -0.0810
    1CHOL    R126834  21.887  11.176   3.562  0.0259 -0.1379 -0.0759
    1CHOL    R226835  22.146  11.152   3.654  0.0130 -0.0589 -0.0251
    1CHOL    R326836  22.068  11.344   3.830 -0.0914 -0.1135 -0.0106
    1CHOL    R426837  22.269  11.189   3.975  0.1230  0.0856 -0.0825
    1CHOL    R526838  22.067  11.234   4.043  0.1060 -0.0970  0.0023
    1CHOL    C126839  22.267  11.391   4.327  0.0890  0.1185 -0.1022
    1CHOL    C226840  22.272  11.141   4.602  0.0719 -0.0157 -0.2459
    1CHOL   ROH26841  12.265  19.989   6.361  0.2015 -0.0265  0.0181
    1CHOL    R126842  12.260  19.835   6.123  0.0406 -0.0801  0.0556
    1CHOL    R226843  12.025  19.774   5.991 -0.0325  0.0574  0.1209
    1CHOL    R326844  12.153  19.885   5.779  0.0036 -0.0857  0.0662
    1CHOL    R426845  11.955  19.704   5.660 -0.0175 -0.1209  0.1542
    1CHOL    R526846  12.170  19.707   5.619 -0.0134 -0.1804  0.1690
    1CHOL    C126847  12.035  19.767   5.267  0.0252 -0.3591  0.1222
    1CHOL    C226848  12.149  19.780   4.918 -0.1247  0.2201  0.0017
    1CHOL   ROH26849  16.284   6.807   4.191  0.2935  0.0716  0.0801
    1CHOL    R126850  16.247   6.854   4.468  0.1009  0.0513  0.0590
    1CHOL    R226851  16.372   7.060   4.603  0.1696 -0.0836  0.2014
    1CHOL    R326852  16.118   7.123   4.676  0.1606  0.1254  0.0015
    1CHOL    R426853  16.288   7.269   4.865  0.1437 -0.2553  0.3320
    1CHOL    R526854  16.126   7.133   4.915 -0.0682 -0.1314  0.0260
    1CHOL    C126855  16.000   7.450   5.086  0.1201 -0.1593  0.2203
    1CHOL    C226856  15.791   7.694   5.391  0.0606  0.0042 -0.1573
    1CHOL   ROH26857  14.910  16.228   3.170  0.1046 -0.2912  0.0363
    1CHOL    R126858  15.011  16.262   3.432  0.0109 -0.2770  0.0705
    1CHOL    R226859  14.955  16.486   3.585  0.0947 -0.1912 -0.0272
    1CHOL    R326860  14.871  16.301   3.766 -0.1119 -0.0759 -0.0016
    1CHOL    R426861  14.910  16.546   3.922  0.3757 -0.1388  0.0036
    1CHOL    R526862  14.997  16.351   3.964  0.0830 -0.2934 -0.0629
    1CHOL    C126863  14.805  16.409   4.288  0.3453 -0.0003  0.0456
    1CHOL    C226864  14.753  16.344   4.628  0.0069  0.0748  0.0608
    1CHOL   ROH26865  26.241  26.165   3.768  0.2060 -0.1584 -0.0283
    1CHOL    R126866  26.456  26.024   3.887  0.1777 -0.1122  0.0779
    1CHOL    R226867  26.470  25.975   4.159  0.1058 -0.0184  0.0981
    1CHOL    R326868  26.498  25.717   4.078  0.1351 -0.0463  0.1946
    1CHOL    R426869  26.617  25.724   4.346  0.0811  0.0545  0.2169
    1CHOL    R526870  26.711  25.651   4.164  0.1216 -0.0054  0.2614
    1CHOL    C126871  26.728  25.336   4.379  0.0942  0.0708  0.3767
    1CHOL    C226872  26.634  25.031   4.508 -0.2996  0.1683  0.0587
    1CHOL   ROH26873  16.506  13.725   6.386  0.2397  0.1709 -0.1775
    1CHOL    R126874  16.505  13.549   6.164  0.0990  0.1254 -0.1415
    1CHOL    R226875  16.402  13.620   5.918  0.0905  0.1317 -0.1346
    1CHOL    R326876  16.648  13.545   5.830  0.0315 -0.0234 -0.1695
    1CHOL    R426877  16.479  13.548   5.589  0.0069  0.1252 -0.1533
    1CHOL    R526878  16.602  13.382   5.660 -0.0978  0.0302 -0.1884
    1CHOL    C126879  16.755  13.435   5.314 -0.0971 -0.0243 -0.1970
    1CHOL    C226880  16.892  13.465   5.042 -0.0416  0.0062  0.1623
    1CHOL   ROH26881  25.226  28.907   3.202  0.1152  0.1405  0.0854
    1CHOL    R126882  25.194  28.763   3.444 -0.1358  0.2053  0.0924
    1CHOL    R226883  25.393  28.748   3.635 -0.1684 -0.1113  0.1011
    1CHOL    R326884  25.197  28.841   3.799 -0.0278  0.2230  0.0890
    1CHOL    R426885  25.415  28.760   3.980 -0.1900 -0.2207  0.1072
    1CHOL    R526886  25.206  28.695   3.990 -0.3220  0.1601  0.0633
    1CHOL    C126887  25.244  28.854   4.335 -0.0705  0.0295  0.0994
    1CHOL    C226888  25.174  28.681   4.668  0.3124 -0.1896  0.1925
    1CHOL   ROH26889  12.913  12.991   3.338 -0.0432  0.0772 -0.0823
    1CHOL    R126890  12.848  13.097   3.593  0.0027  0.0174 -0.0457
    1CHOL    R226891  12.790  12.937   3.810  0.0279 -0.0336 -0.0775
    1CHOL    R326892  12.987  13.083   3.929  0.0545 -0.0742 -0.0706
    1CHOL    R426893  12.851  12.947   4.151  0.0349 -0.0640 -0.0774
    1CHOL    R526894  12.888  13.161   4.132  0.0711 -0.0694 -0.0645
    1CHOL    C126895  13.071  13.090   4.460  0.0639 -0.1198 -0.0707
    1CHOL    C226896  12.854  13.061   4.769  0.1527  0.2518  0.0051
    1CHOL   ROH26897  12.056  28.844   6.034 -0.2048 -0.0855 -0.0905
    1CHOL    R126898  12.043  29.117   5.960 -0.1849 -0.0453  0.0510
    1CHOL    R226899  12.072  29.201   5.698  0.0815  0.1103  0.1270
    1CHOL    R326900  11.833  29.323   5.745 -0.0000  0.0284 -0.0623
    1CHOL    R426901  11.894  29.383   5.464  0.1236 -0.0880 -0.0630
    1CHOL    R526902  11.846  29.527   5.621 -0.0255 -0.0285 -0.1602
    1CHOL    C126903  11.566  29.603   5.373  0.0715 -0.2807 -0.3512
    1CHOL    C226904  11.662  29.885   5.116 -0.2617  0.0415  0.3130
    1CHOL   ROH26905  22.627   5.353   5.225  0.0988 -0.0346  0.1281
    1CHOL    R126906  22.637   5.218   4.976 -0.0484 -0.0284  0.1176
    1CHOL    R226907  22.840   5.259   4.793 -0.1790  0.0071 -0.0194
    1CHOL    R326908  22.865   4.989   4.809 -0.1243  0.0105 -0.0428
    1CHOL    R426909  23.019   5.063   4.571 -0.3675  0.0365 -0.2003
    1CHOL    R526910  22.860   4.915   4.582 -0.3393  0.0121 -0.0421
    1CHOL    C126911  23.146   4.695   4.458 -0.4258  0.0569 -0.3275
    1CHOL    C226912  23.184   4.888   4.087  0.1088 -0.1445  0.1252
    1CHOL   ROH26913   1.462  10.167   3.351  0.0259  0.0348  0.0128
    1CHOL    R126914   1.560  10.339   3.554  0.2319  0.0650 -0.1099
    1CHOL    R226915   1.491  10.310   3.820  0.1188  0.3922 -0.1007
    1CHOL    R326916   1.761  10.305   3.856  0.1083  0.0212 -0.0311
    1CHOL    R426917   1.651  10.348   4.124  0.0925  0.3529 -0.0817
    1CHOL    R526918   1.801  10.470   4.025  0.3020  0.0747 -0.1245
    1CHOL    C126919   1.997  10.365   4.335  0.0673 -0.0182 -0.0054
    1CHOL    C226920   1.906  10.171   4.654 -0.1675  0.4041 -0.2523
    1CHOL   ROH26921  25.775  27.650   4.606  0.0267 -0.0975  0.2902
    1CHOL    R126922  25.546  27.483   4.601 -0.0578  0.0200  0.2033
    1CHOL    R226923  25.541  27.234   4.720 -0.1853 -0.0374  0.0809
    1CHOL    R326924  25.321  27.335   4.845 -0.1370  0.0128  0.1260
    1CHOL    R426925  25.261  27.050   4.806 -0.2295  0.0379  0.1005
    1CHOL    R526926  25.137  27.219   4.745 -0.1875  0.0819  0.1402
    1CHOL    C126927  24.892  27.038   4.974 -0.2097  0.1289  0.1543
    1CHOL    C226928  24.399  27.065   5.077  0.0385 -0.0875 -0.4522
    1CHOL   ROH26929  18.806  13.838   6.299  0.4648  0.0317 -0.0883
    1CHOL    R126930  18.727  13.941   6.047  0.4443  0.0831 -0.0607
    1CHOL    R226931  18.897  13.948   5.830  0.3323 -0.1578 -0.1578
    1CHOL    R326932  18.695  13.813   5.708  0.0993  0.0613 -0.0236
    1CHOL    R426933  18.852  13.928   5.488  0.2657 -0.3612 -0.1384
    1CHOL    R526934  18.637  13.951   5.520  0.2981  0.0077 -0.1282
    1CHOL    C126935  18.636  13.790   5.174  0.0083 -0.2740 -0.0012
    1CHOL    C226936  18.807  13.818   4.884 -0.0517 -0.2837 -0.1805
    1CHOL   ROH26937   6.022  15.032   5.902 -0.1848 -0.0020 -0.2525
    1CHOL    R126938   6.193  14.933   5.699  0.0080  0.2860 -0.2370
    1CHOL    R226939   6.120  14.726   5.532  0.5478 -0.1813  0.0716
    1CHOL    R326940   6.183  14.904   5.337 -0.1572 -0.1980 -0.2007
    1CHOL    R426941   6.270  14.644   5.232  0.6662 -0.0726  0.1004
    1CHOL    R526942   6.392  14.825   5.249  0.0830  0.3831 -0.1990
    1CHOL    C126943   6.417  14.764   4.873  0.0733 -0.0249 -0.1385
    1CHOL    C226944   6.577  14.684   4.630 -0.0510 -0.0690 -0.2708
    1CHOL   ROH26945  26.861   0.486   3.951  0.0323 -0.1904 -0.0176
    1CHOL    R126946  26.680   0.378   4.139  0.0124  0.0337  0.0973
    1CHOL    R226947  26.463   0.519   4.234 -0.0909  0.0979 -0.2101
    1CHOL    R326948  26.324   0.301   4.150  0.0429 -0.1070  0.0884
    1CHOL    R426949  26.195   0.381   4.403 -0.3009  0.4534 -0.2445
    1CHOL    R526950  26.273   0.182   4.353 -0.2118  0.3378  0.2981
    1CHOL    C126951  25.908   0.095   4.423 -0.2977  0.4681  0.0157
    1CHOL    C226952  25.784   0.324   4.691  0.0130 -0.2928  0.1543
    1CHOL   ROH26953  20.535  15.264   6.301  0.0690 -0.1055  0.0219
    1CHOL    R126954  20.403  15.111   6.103  0.0038 -0.0546  0.0266
    1CHOL    R226955  20.305  15.222   5.870  0.0582 -0.0216  0.0240
    1CHOL    R326956  20.457  15.029   5.753 -0.0292 -0.0951  0.0296
    1CHOL    R426957  20.270  15.115   5.543  0.2061  0.2123 -0.0719
    1CHOL    R526958  20.303  14.911   5.612 -0.0392  0.1330 -0.1636
    1CHOL    C126959  20.391  14.871   5.243  0.2105  0.2797 -0.1226
    1CHOL    C226960  20.170  14.940   4.903  0.0830  0.0975 -0.2652
    1CHOL   ROH26961  10.697  10.565   3.694  0.0189  0.0074 -0.0183
    1CHOL    R126962  10.698  10.528   3.975  0.0340  0.0221 -0.0170
    1CHOL    R226963  10.774  10.727   4.152  0.0546  0.0250 -0.0346
    1CHOL    R326964  10.531  10.676   4.262  0.0598  0.0445 -0.0121
    1CHOL    R426965  10.675  10.824   4.468  0.1543 -0.1022  0.0369
    1CHOL    R526966  10.577  10.631   4.492  0.0972 -0.0877 -0.0417
    1CHOL    C126967  10.389  10.832   4.756  0.2171 -0.1578  0.0994
    1CHOL    C226968  10.397  10.868   5.144  0.3307  0.2166  0.1898
    1CHOL   ROH26969  18.272   7.976   6.610 -0.0312  0.1822 -0.1191
    1CHOL    R126970  18.427   8.013   6.377  0.0647 -0.0157 -0.0886
    1CHOL    R226971  18.484   7.806   6.202 -0.1673 -0.0921 -0.0801
    1CHOL    R326972  18.378   7.976   6.018  0.0850  0.0510 -0.0979
    1CHOL    R426973  18.487   7.753   5.861 -0.3287 -0.1785 -0.0689
    1CHOL    R526974  18.530   7.965   5.833  0.0323 -0.2549 -0.1274
    1CHOL    C126975  18.390   7.881   5.489 -0.1862 -0.0944 -0.0791
    1CHOL    C226976  18.689   7.659   5.284  0.0724 -0.1155  0.1139
    1CHOL   ROH26977  12.748  15.213   2.959  0.0449 -0.2326 -0.0363
    1CHOL    R126978  12.770  15.123   3.226 -0.2324 -0.1749  0.0070
    1CHOL    R226979  12.938  15.242   3.411 -0.0621 -0.4327  0.0142
    1CHOL    R326980  12.710  15.261   3.557 -0.0854  0.0744 -0.0656
    1CHOL    R426981  12.925  15.286   3.753 -0.0748 -0.4180  0.0132
    1CHOL    R526982  12.760  15.146   3.761 -0.4070 -0.0573 -0.0494
    1CHOL    C126983  12.704  15.330   4.090 -0.1041  0.0665 -0.0623
    1CHOL    C226984  12.610  15.432   4.439 -0.0739 -0.1490  0.1477
    1CHOL   ROH26985   6.767  25.919   5.151  0.0951  0.1200 -0.1703
    1CHOL    R126986   6.756  26.000   4.880  0.0512  0.1657 -0.1549
    1CHOL    R226987   6.563  25.908   4.705  0.1498  0.0284 -0.1935
    1CHOL    R326988   6.518  26.173   4.665 -0.0823 -0.0010 -0.1433
    1CHOL    R426989   6.451  26.047   4.409  0.4049  0.0265 -0.2938
    1CHOL    R526990   6.590  26.212   4.440  0.1881  0.1672 -0.0329
    1CHOL    C126991   6.344  26.377   4.199  0.3356 -0.0022 -0.3050
    1CHOL    C226992   6.231  26.591   3.905  0.1024 -0.0941 -0.1884
    1CHOL   ROH26993  11.224  12.880   6.437  0.0631 -0.0680  0.0660
    1CHOL    R126994  11.140  12.965   6.180  0.1655 -0.0110  0.0519
    1CHOL    R226995  11.313  13.083   5.999  0.2870 -0.1696  0.0669
    1CHOL    R326996  11.224  12.886   5.835  0.1360 -0.1021  0.0647
    1CHOL    R426997  11.335  13.088   5.654  0.3098 -0.1874  0.0674
    1CHOL    R526998  11.135  13.002   5.645  0.2372 -0.0289  0.0585
    1CHOL    C126999  11.263  12.905   5.299  0.1814 -0.1343  0.0657
    1CHOL    C227000  11.303  13.141   4.905 -0.0173  0.0212 -0.2081
    1CHOL   ROH27001  17.108  21.440   3.412 -0.1720  0.1919  0.0407
    1CHOL    R127002  16.842  21.508   3.478 -0.2682 -0.0615 -0.0771
    1CHOL    R227003  16.640  21.319   3.495 -0.0355 -0.2991  0.1261
    1CHOL    R327004  16.606  21.426   3.742 -0.1970 -0.0365 -0.0056
    1CHOL    R427005  16.336  21.351   3.656 -0.1202 -0.2842 -0.0350
    1CHOL    R527006  16.400  21.547   3.727 -0.2591 -0.1660 -0.2280
    1CHOL    C127007  16.126  21.471   3.982 -0.3212 -0.0289 -0.2523
    1CHOL    C227008  15.805  21.712   4.162  0.0747 -0.1216 -0.0798
    1CHOL   ROH27009  15.186  14.197   3.021 -0.0204 -0.0024 -0.0710
    1CHOL    R127010  15.074  14.303   3.259 -0.2805 -0.1446 -0.1284
    1CHOL    R227011  14.937  14.147   3.441  0.1419 -0.4007 -0.0264
    1CHOL    R327012  15.116  14.252   3.616 -0.1091  0.1847 -0.0956
    1CHOL    R427013  14.930  14.097   3.783  0.4168 -0.4318 -0.0224
    1CHOL    R527014  14.985  14.307   3.809 -0.2365 -0.2290 -0.0478
    1CHOL    C127015  15.094  14.167   4.147  0.3411  0.0998 -0.0849
    1CHOL    C227016  15.255  14.069   4.511  0.0922 -0.1817 -0.0594
    1CHOL   ROH27017  15.075  13.850   6.498  0.0845 -0.0500  0.0280
    1CHOL    R127018  14.984  13.917   6.239  0.1130  0.0144  0.0343
    1CHOL    R227019  15.143  14.045   6.054  0.2073 -0.1389  0.0067
    1CHOL    R327020  15.075  13.834   5.896  0.0000 -0.0912  0.0293
    1CHOL    R427021  15.176  14.037   5.710 -0.0463 -0.1154 -0.0196
    1CHOL    R527022  14.983  13.934   5.699 -0.0997 -0.0291  0.1070
    1CHOL    C127023  15.130  13.834   5.362 -0.3886 -0.0570 -0.0138
    1CHOL    C227024  15.273  13.834   4.962 -0.0886 -0.0539  0.3316
    1CHOL   ROH27025  12.765  21.114   3.445 -0.0071 -0.2002  0.1692
    1CHOL    R127026  12.592  21.163   3.663 -0.1030  0.0623  0.0379
    1CHOL    R227027  12.678  21.159   3.925 -0.2738  0.1021  0.0922
    1CHOL    R327028  12.567  21.407   3.932 -0.0511  0.2114 -0.0898
    1CHOL    R427029  12.626  21.344   4.212 -0.2992  0.2678 -0.0170
    1CHOL    R527030  12.433  21.407   4.131 -0.1907  0.4141 -0.1768
    1CHOL    C127031  12.491  21.685   4.386 -0.1048  0.4669 -0.2515
    1CHOL    C227032  12.548  21.837   4.804 -0.1058 -0.0625  0.1956
    1CHOL   ROH27033  14.540  10.404   3.233  0.3794 -0.5603 -0.0469
    1CHOL    R127034  14.693  10.472   3.462  0.3031 -0.5194 -0.0089
    1CHOL    R227035  14.647  10.701   3.609  0.4257 -0.3585 -0.2243
    1CHOL    R327036  14.629  10.526   3.816  0.1386 -0.1741 -0.0856
    1CHOL    R427037  14.755  10.764   3.931  0.4608 -0.2463 -0.2566
    1CHOL    R527038  14.830  10.559   3.941  0.1729 -0.3564 -0.0817
    1CHOL    C127039  14.800  10.635   4.313  0.2118 -0.0078 -0.1451
    1CHOL    C227040  14.929  10.698   4.731 -0.2121  0.1742 -0.4449
    1CHOL   ROH27041  20.379  10.666   6.566  0.0241 -0.0693 -0.0557
    1CHOL    R127042  20.403  10.483   6.351  0.0282 -0.0790 -0.0472
    1CHOL    R227043  20.247  10.500   6.123  0.0004 -0.1169 -0.0314
    1CHOL    R327044  20.488  10.500   5.997 -0.0136 -0.0878 -0.0578
    1CHOL    R427045  20.300  10.397   5.797 -0.0518  0.0389 -0.0895
    1CHOL    R527046  20.485  10.302   5.862 -0.0575 -0.0204 -0.1572
    1CHOL    C127047  20.556  10.338   5.489 -0.0955  0.1569 -0.1481
    1CHOL    C227048  20.852  10.396   5.138  0.4043 -0.0862  0.0294
    1CHOL   ROH27049   2.050   2.818   5.762 -0.3209  0.1346  0.1845
    1CHOL    R127050   2.201   2.862   5.527 -0.2714 -0.0752  0.1760
    1CHOL    R227051   2.090   2.850   5.274 -0.2768 -0.0354  0.1817
    1CHOL    R327052   2.197   3.099   5.251 -0.0317 -0.1431  0.1100
    1CHOL    R427053   2.111   3.029   4.979 -0.4243 -0.0072  0.1859
    1CHOL    R527054   2.310   3.095   5.040 -0.2743 -0.2317 -0.0260
    1CHOL    C127055   2.225   3.366   4.786 -0.2800 -0.0919  0.1210
    1CHOL    C227056   2.395   3.506   4.430 -0.0870 -0.2111  0.1043
    1CHOL   ROH27057  16.660  11.841   3.125  0.2854  0.1601  0.1918
    1CHOL    R127058  16.484  11.815   3.345  0.1102  0.1151  0.0506
    1CHOL    R227059  16.509  11.614   3.533 -0.1322 -0.0220 -0.0458
    1CHOL    R327060  16.511  11.822   3.707 -0.1418 -0.1245  0.0746
    1CHOL    R427061  16.368  11.609   3.849 -0.1744 -0.1783 -0.0679
    1CHOL    R527062  16.297  11.812   3.815 -0.1494 -0.1617  0.0404
    1CHOL    C127063  16.289  11.801   4.196 -0.2078 -0.3655  0.0324
    1CHOL    C227064  16.314  11.791   4.574 -0.2412  0.0970 -0.0918
    1CHOL   ROH27065  15.543   5.941   4.394 -0.1951  0.2016 -0.0494
    1CHOL    R127066  15.395   5.829   4.608  0.0761  0.0304  0.0542
    1CHOL    R227067  15.492   5.816   4.866  0.2036  0.3014  0.0222
    1CHOL    R327068  15.261   5.945   4.926 -0.0007 -0.0675  0.0581
    1CHOL    R427069  15.336   5.810   5.174  0.2158 -0.0084  0.0256
    1CHOL    R527070  15.145   5.795   5.072  0.2321 -0.2828  0.0283
    1CHOL    C127071  15.028   5.927   5.410  0.0311 -0.5351  0.0612
    1CHOL    C227072  15.058   5.906   5.806 -0.0500 -0.2372  0.0376
    1CHOL   ROH27073  12.704  12.433   6.616  0.2009 -0.1629 -0.1976
    1CHOL    R127074  12.576  12.438   6.363  0.1602 -0.0048 -0.1748
    1CHOL    R227075  12.716  12.422   6.125  0.0961 -0.2112 -0.1994
    1CHOL    R327076  12.546  12.215   6.078 -0.1972  0.0144 -0.1562
    1CHOL    R427077  12.590  12.334   5.815  0.0329 -0.1429 -0.1932
    1CHOL    R527078  12.398  12.296   5.908 -0.0468  0.1698 -0.2168
    1CHOL    C127079  12.358  12.089   5.591 -0.2793  0.1087 -0.1490
    1CHOL    C227080  12.070  11.878   5.342 -0.0371 -0.3032  0.1941
    1CHOL   ROH27081  18.551  17.732   3.471 -0.3769 -0.0176 -0.0676
    1CHOL    R127082  18.425  17.783   3.720 -0.1272  0.2358  0.0117
    1CHOL    R227083  18.335  17.580   3.885 -0.5561  0.4064 -0.0052
    1CHOL    R327084  18.490  17.707   4.069 -0.1341 -0.0280 -0.0417
    1CHOL    R427085  18.321  17.527   4.227 -0.4453  0.2676 -0.0206
    1CHOL    R527086  18.345  17.741   4.256  0.0618  0.2123  0.0737
    1CHOL    C127087  18.459  17.615   4.598  0.0155 -0.2208 -0.0640
    1CHOL    C227088  18.536  17.486   4.950 -0.1557 -0.0337  0.0439
    1CHOL   ROH27089   8.305  18.195   3.047 -0.3592 -0.1869  0.1321
    1CHOL    R127090   8.455  18.184   3.287 -0.1431 -0.0008  0.0085
    1CHOL    R227091   8.628  18.386   3.364 -0.3017  0.1956 -0.1599
    1CHOL    R327092   8.480  18.382   3.591 -0.1016  0.0530 -0.0274
    1CHOL    R427093   8.739  18.489   3.674 -0.1446  0.4041 -0.2821
    1CHOL    R527094   8.635  18.320   3.763  0.1407  0.2807 -0.1495
    1CHOL    C127095   8.665  18.545   4.069  0.1348  0.3917 -0.2288
    1CHOL    C227096   8.924  18.442   4.325 -0.0314  0.2667  0.1872
    1CHOL   ROH27097  21.908  16.117   3.498  0.0545 -0.2694 -0.0442
    1CHOL    R127098  21.967  16.013   3.754  0.1840 -0.0479  0.0197
    1CHOL    R227099  22.093  16.162   3.950  0.0374  0.2148 -0.0736
    1CHOL    R327100  21.877  16.090   4.099  0.1189  0.0717 -0.0249
    1CHOL    R427101  22.090  16.137   4.295  0.1454  0.1331 -0.0788
    1CHOL    R527102  21.968  15.957   4.276  0.2337  0.0795 -0.0821
    1CHOL    C127103  21.885  16.054   4.635  0.2846 -0.0487 -0.0362
    1CHOL    C227104  22.076  16.226   4.849  0.0957  0.1268 -0.0315
    1CHOL   ROH27105   8.566  15.834   6.082 -0.1281 -0.1500  0.1063
    1CHOL    R127106   8.652  15.845   5.812 -0.1792 -0.0148  0.0953
    1CHOL    R227107   8.758  15.627   5.681 -0.0201  0.1029  0.0266
    1CHOL    R327108   8.563  15.682   5.500 -0.0947 -0.0130  0.0703
    1CHOL    R427109   8.789  15.583   5.340 -0.0103  0.2842  0.0026
    1CHOL    R527110   8.681  15.771   5.311 -0.2030  0.1902  0.0960
    1CHOL    C127111   8.624  15.608   4.970 -0.0748  0.2812  0.0297
    1CHOL    C227112   8.652  15.517   4.518 -0.0246 -0.1955 -0.3496
    1CHOL   ROH27113   0.209  15.972   5.002 -0.1405  0.2044  0.0753
    1CHOL    R127114   0.277  15.900   4.737  0.0257  0.1891  0.1236
    1CHOL    R227115   0.096  15.907   4.530  0.1174  0.0151  0.0504
    1CHOL    R327116   0.284  16.063   4.411  0.0604  0.1128  0.0822
    1CHOL    R427117   0.105  15.982   4.192  0.2117 -0.1269  0.0185
    1CHOL    R527118   0.322  15.958   4.198  0.2406  0.0395  0.1386
    1CHOL    C127119   0.287  16.173   3.885  0.2132 -0.1180  0.0298
    1CHOL    C227120   0.241  16.306   3.537  0.1117  0.0117  0.3209
    1CHOL   ROH27121   3.803   2.752   5.804 -0.0482 -0.1107  0.2594
    1CHOL    R127122   3.708   2.811   5.544 -0.0699  0.1957  0.3327
    1CHOL    R227123   3.825   3.002   5.383  0.1638  0.1149  0.3999
    1CHOL    R327124   3.839   2.797   5.205 -0.2328  0.1918  0.2697
    1CHOL    R427125   3.915   3.035   5.051  0.3059  0.1381  0.4403
    1CHOL    R527126   3.759   2.891   4.999  0.0069  0.4962  0.3111
    1CHOL    C127127   3.982   2.861   4.690  0.0164  0.2237  0.3416
    1CHOL    C227128   3.947   2.894   4.256  0.0736 -0.0337  0.1644
    1CHOL   ROH27129   3.373  24.088   3.228 -0.0225  0.0823 -0.0021
    1CHOL    R127130   3.558  24.023   3.432 -0.2260  0.0910  0.1893
    1CHOL    R227131   3.831  24.050   3.400 -0.1612 -0.3634  0.2876
    1CHOL    R327132   3.810  24.199   3.626 -0.0639 -0.0057  0.0690
    1CHOL    R427133   4.098  24.149   3.596 -0.1116 -0.4616  0.2700
    1CHOL    R527134   3.977  24.108   3.772 -0.2604 -0.0393  0.2785
    1CHOL    C127135   4.234  24.347   3.922  0.0087 -0.1832  0.0546
    1CHOL    C227136   4.515  24.233   4.220 -0.0138  0.0730  0.2107
    1CHOL   ROH27137  24.012  13.583   4.934 -0.0958  0.2149  0.1678
    1CHOL    R127138  23.746  13.669   4.888 -0.0833  0.2004  0.0661
    1CHOL    R227139  23.683  13.927   4.814 -0.0654  0.1856 -0.0002
    1CHOL    R327140  23.556  13.803   4.608  0.0041  0.1462 -0.0199
    1CHOL    R427141  23.506  14.089   4.565  0.0296  0.1390 -0.0988
    1CHOL    R527142  23.356  13.931   4.576  0.0198  0.1466 -0.1191
    1CHOL    C127143  23.284  14.066   4.227  0.1502  0.0749 -0.1746
    1CHOL    C227144  23.399  14.306   3.915 -0.0610  0.0310 -0.4235
    1CHOL   ROH27145   6.593   7.466   3.575 -0.1536  0.1454  0.0868
    1CHOL    R127146   6.481   7.583   3.807 -0.0352  0.1905  0.1220
    1CHOL    R227147   6.427   7.437   4.036 -0.1707  0.1773  0.0814
    1CHOL    R327148   6.580   7.629   4.154  0.0187 -0.0019  0.1336
    1CHOL    R427149   6.433   7.504   4.375 -0.1540  0.1206  0.0925
    1CHOL    R527150   6.441   7.717   4.328  0.0826  0.1228  0.1240
    1CHOL    C127151   6.579   7.723   4.683  0.0336 -0.0806  0.1480
    1CHOL    C227152   6.433   7.882   4.998  0.0141  0.0626 -0.3373
    1CHOL   ROH27153  17.760  20.217   3.788  0.0125  0.0730  0.0099
    1CHOL    R127154  17.840  20.123   4.043 -0.0719 -0.0333 -0.0024
    1CHOL    R227155  17.813  20.275   4.273 -0.0273 -0.0784  0.0305
    1CHOL    R327156  17.679  20.056   4.363 -0.1519 -0.0337 -0.0419
    1CHOL    R427157  17.648  20.255   4.576  0.0632 -0.1210  0.0779
    1CHOL    R527158  17.724  20.052   4.598 -0.0716 -0.1899 -0.0572
    1CHOL    C127159  17.427  20.038   4.837 -0.0008 -0.1039  0.0375
    1CHOL    C227160  17.169  20.144   4.983  0.0154 -0.0850  0.0487
    1CHOL   ROH27161  19.178   6.363   6.686 -0.1372 -0.1694  0.0871
    1CHOL    R127162  19.086   6.298   6.426 -0.0917 -0.0961  0.0518
    1CHOL    R227163  19.080   6.482   6.220  0.0258 -0.0593  0.0777
    1CHOL    R327164  19.225   6.293   6.090 -0.0041 -0.0890  0.0883
    1CHOL    R427165  19.159   6.490   5.884  0.0644 -0.0707  0.0869
    1CHOL    R527166  19.122   6.276   5.875  0.0165 -0.0605  0.0774
    1CHOL    C127167  19.341   6.317   5.566  0.0588 -0.1052  0.1021
    1CHOL    C227168  19.517   6.408   5.392 -0.1635 -0.2542 -0.2957
    1CHOL   ROH27169  13.726   6.286   4.304  0.1474 -0.0904  0.0620
    1CHOL    R127170  13.882   6.387   4.517  0.0776 -0.0071  0.0734
    1CHOL    R227171  13.781   6.565   4.703 -0.0164 -0.0247  0.0365
    1CHOL    R327172  13.869   6.379   4.881  0.0284  0.0311  0.0735
    1CHOL    R427173  13.829   6.622   5.041 -0.2455 -0.0009  0.0664
    1CHOL    R527174  14.011   6.503   5.030 -0.1446  0.1355  0.1581
    1CHOL    C127175  13.939   6.481   5.404 -0.3368  0.0653  0.1185
    1CHOL    C227176  14.041   6.392   5.662 -0.2698 -0.0917 -0.0635
    1CHOL   ROH27177  20.709  15.513   2.944  0.0877  0.1941  0.0199
    1CHOL    R127178  20.855  15.492   3.186  0.1615 -0.0938 -0.0464
    1CHOL    R227179  20.736  15.519   3.433  0.3314  0.1864  0.0053
    1CHOL    R327180  20.849  15.277   3.479 -0.1609 -0.0625 -0.0246
    1CHOL    R427181  20.762  15.370   3.744  0.5422  0.3826  0.0853
    1CHOL    R527182  20.962  15.303   3.689  0.3016 -0.1490 -0.2468
    1CHOL    C127183  20.883  15.055   3.968  0.2026  0.2633  0.1038
    1CHOL    C227184  20.760  15.114   4.286 -0.2715  0.0043 -0.1568
    1CHOL   ROH27185  12.638  10.237   3.442  0.1059 -0.1876 -0.1678
    1CHOL    R127186  12.503  10.282   3.687  0.0454 -0.1414 -0.2084
    1CHOL    R227187  12.529  10.113   3.904  0.1267 -0.0107 -0.1103
    1CHOL    R327188  12.597  10.342   4.033 -0.0343  0.1054 -0.2291
    1CHOL    R427189  12.567  10.143   4.246  0.2360  0.1671 -0.1376
    1CHOL    R527190  12.469  10.337   4.235  0.0525  0.0695 -0.1776
    1CHOL    C127191  12.653  10.376   4.566  0.1484  0.3797 -0.2649
    1CHOL    C227192  12.920  10.292   4.781 -0.1867 -0.2379 -0.1822
    1CHOL   ROH27193   9.944  13.330   6.695  0.1394 -0.3356  0.0040
    1CHOL    R127194  10.031  13.229   6.445 -0.1003 -0.4135 -0.0506
    1CHOL    R227195   9.863  13.093   6.272 -0.4062 -0.0188 -0.0782
    1CHOL    R327196   9.946  13.281   6.095 -0.0624 -0.1058 -0.0170
    1CHOL    R427197   9.875  13.049   5.930 -0.3539  0.0248 -0.0821
    1CHOL    R527198  10.065  13.157   5.928 -0.1877 -0.2553  0.0021
    1CHOL    C127199   9.960  13.201   5.563 -0.0006 -0.0316 -0.0269
    1CHOL    C227200   9.899  13.149   5.208 -0.0262 -0.2405 -0.1913
    1CHOL   ROH27201   9.315  17.014   2.871 -0.0814 -0.2815 -0.0975
    1CHOL    R127202   9.373  16.907   3.127 -0.0153 -0.0737 -0.0209
    1CHOL    R227203   9.536  17.037   3.309 -0.1082  0.1674 -0.0878
    1CHOL    R327204   9.321  17.007   3.473 -0.1032  0.1247 -0.0934
    1CHOL    R427205   9.534  17.105   3.648 -0.0655 -0.1154 -0.0305
    1CHOL    R527206   9.413  16.926   3.679 -0.1325 -0.0805 -0.1684
    1CHOL    C127207   9.332  17.116   3.999 -0.0360 -0.3202 -0.0023
    1CHOL    C227208   9.294  17.318   4.381 -0.1223 -0.1450  0.1006
    1CHOL   ROH27209   1.650  18.343   5.494  0.1006 -0.1432 -0.0873
    1CHOL    R127210   1.681  18.381   5.215 -0.0311  0.0533 -0.0755
    1CHOL    R227211   1.602  18.613   5.087  0.0841  0.2189  0.1593
    1CHOL    R327212   1.859  18.613   4.999  0.0341  0.0796  0.0031
    1CHOL    R427213   1.712  18.772   4.801  0.0256  0.3440  0.2040
    1CHOL    R527214   1.840  18.600   4.760 -0.1291  0.2660 -0.0008
    1CHOL    C127215   2.017  18.865   4.551 -0.0555  0.2865  0.0833
    1CHOL    C227216   2.168  19.162   4.364  0.0003  0.3356 -0.1821
    1CHOL   ROH27217  16.254   8.885   6.917 -0.1638 -0.1367 -0.0371
    1CHOL    R127218  16.250   8.658   6.748 -0.0019 -0.1011 -0.0908
    1CHOL    R227219  16.136   8.661   6.497 -0.0133 -0.1259 -0.0867
    1CHOL    R327220  16.380   8.570   6.420  0.0526  0.0721 -0.1162
    1CHOL    R427221  16.226   8.592   6.171 -0.1388 -0.4544 -0.0554
    1CHOL    R527222  16.332   8.416   6.243  0.1277 -0.2301  0.1196
    1CHOL    C127223  16.507   8.466   5.908 -0.1497 -0.4596 -0.0648
    1CHOL    C227224  16.572   8.418   5.485 -0.1834  0.1353 -0.0176
    1CHOL   ROH27225  22.877  20.546   6.294  0.2770  0.0817  0.0290
    1CHOL    R127226  22.793  20.626   6.036  0.0338 -0.0282  0.0700
    1CHOL    R227227  22.724  20.887   5.977  0.0112 -0.0423  0.0140
    1CHOL    R327228  22.910  20.858   5.781 -0.1816 -0.1634 -0.1530
    1CHOL    R427229  22.744  21.083   5.693  0.1293  0.2025  0.1879
    1CHOL    R527230  22.790  20.904   5.579 -0.2560  0.2340 -0.0231
    1CHOL    C127231  22.929  21.170   5.344  0.0171  0.2311  0.1323
    1CHOL    C227232  22.959  21.464   5.216  0.1918  0.0621 -0.1458
    1CHOL   ROH27233  13.436  11.666   3.197 -0.0734 -0.0808 -0.0955
    1CHOL    R127234  13.543  11.631   3.457 -0.1696 -0.1960 -0.0697
    1CHOL    R227235  13.692  11.827   3.585  0.0677 -0.3744 -0.0593
    1CHOL    R327236  13.508  11.793   3.781 -0.0227 -0.1112 -0.0959
    1CHOL    R427237  13.755  11.859   3.923  0.0438 -0.4645 -0.0466
    1CHOL    R527238  13.628  11.686   3.958 -0.2113 -0.2839 -0.0708
    1CHOL    C127239  13.619  11.846   4.304 -0.0549 -0.2699 -0.0735
    1CHOL    C227240  13.640  11.880   4.643 -0.1874  0.1034 -0.3789
    1CHOL   ROH27241  13.552   9.462   7.031  0.1379 -0.1267  0.1178
    1CHOL    R127242  13.377   9.339   6.846  0.0648 -0.0105  0.1098
    1CHOL    R227243  13.381   9.397   6.576  0.2411 -0.1450  0.0867
    1CHOL    R327244  13.409   9.128   6.551 -0.0693 -0.1952  0.2228
    1CHOL    R427245  13.316   9.218   6.287  0.3159 -0.1607  0.0793
    1CHOL    R527246  13.227   9.062   6.410 -0.0156 -0.0100  0.0523
    1CHOL    C127247  13.306   8.861   6.096  0.0680 -0.2170  0.2028
    1CHOL    C227248  12.914   9.022   5.993 -0.3170 -0.1123 -0.0032
    1CHOL   ROH27249  19.828  12.585   6.271 -0.0191 -0.0196  0.0779
    1CHOL    R127250  19.692  12.611   6.025 -0.0364 -0.2235  0.0643
    1CHOL    R227251  19.718  12.833   5.863 -0.4124 -0.1442  0.1055
    1CHOL    R327252  19.783  12.649   5.674 -0.0541 -0.0013  0.0818
    1CHOL    R427253  19.657  12.866   5.524 -0.5138 -0.2294  0.1146
    1CHOL    R527254  19.602  12.656   5.519 -0.0919 -0.3508  0.1001
    1CHOL    C127255  19.683  12.712   5.150 -0.2366 -0.1448  0.0978
    1CHOL    C227256  19.479  12.778   4.827 -0.0220  0.3177  0.3675
    1CHOL   ROH27257  13.705  19.498   3.096  0.0427 -0.3039  0.0840
    1CHOL    R127258  13.771  19.493   3.371 -0.0248 -0.2696  0.1019
    1CHOL    R227259  13.684  19.686   3.548  0.1628 -0.0861  0.0070
    1CHOL    R327260  13.589  19.472   3.686 -0.1277  0.0771  0.0682
    1CHOL    R427261  13.611  19.685   3.886  0.4395  0.0196  0.0686
    1CHOL    R527262  13.698  19.485   3.899  0.0760 -0.1455 -0.0223
    1CHOL    C127263  13.481  19.483   4.212  0.3277  0.2345  0.1620
    1CHOL    C227264  13.503  19.587   4.576  0.1132  0.0254 -0.1134
    1CHOL   ROH27265  14.865  22.527   6.056  0.0684  0.0128  0.1596
    1CHOL    R127266  14.765  22.479   5.795 -0.0366  0.1291  0.1779
    1CHOL    R227267  14.845  22.628   5.576  0.1676 -0.0202  0.1500
    1CHOL    R327268  14.904  22.383   5.472 -0.2184 -0.1299  0.1731
    1CHOL    R427269  14.781  22.531   5.250  0.2122  0.1325  0.0951
    1CHOL    R527270  14.721  22.336   5.326 -0.2140  0.2311  0.0380
    1CHOL    C127271  14.799  22.246   4.963 -0.1243  0.1182  0.0846
    1CHOL    C227272  14.871  21.910   4.784 -0.0869 -0.2592  0.0753
    1CHOL   ROH27273  13.068   5.775   6.903 -0.0923  0.2562 -0.0398
    1CHOL    R127274  13.031   5.739   6.625  0.0196  0.2310 -0.0519
    1CHOL    R227275  13.131   5.916   6.438  0.2741  0.1041 -0.0392
    1CHOL    R327276  13.244   5.692   6.334  0.1301 -0.0200  0.0662
    1CHOL    R427277  13.255   5.889   6.117  0.6040 -0.0026  0.0929
    1CHOL    R527278  13.170   5.688   6.106  0.3774  0.0947 -0.0206
    1CHOL    C127279  13.434   5.663   5.831  0.6608 -0.1813  0.2687
    1CHOL    C227280  13.335   5.802   5.464 -0.2838 -0.1327 -0.0396
    1CHOL   ROH27281  12.936   6.713   4.092 -0.2546  0.2179  0.1597
    1CHOL    R127282  12.985   6.644   4.362 -0.1842  0.0738  0.1117
    1CHOL    R227283  13.236   6.662   4.477 -0.1236 -0.1179  0.0219
    1CHOL    R327284  13.105   6.814   4.661  0.0340 -0.1200  0.1365
    1CHOL    R427285  13.339   6.708   4.803  0.1232 -0.1639 -0.0482
    1CHOL    R527286  13.131   6.692   4.866  0.1695 -0.1418  0.1053
    1CHOL    C127287  13.277   6.877   5.166  0.4149 -0.1926  0.0185
    1CHOL    C227288  13.208   7.039   5.496  0.3101 -0.1101  0.0336
    1CHOL   ROH27289  13.033  18.910   3.085 -0.0403 -0.0339  0.0311
    1CHOL    R127290  13.033  18.976   3.361 -0.0230 -0.0097  0.0258
    1CHOL    R227291  12.846  19.145   3.473  0.0232  0.0546  0.0115
    1CHOL    R327292  12.806  18.936   3.642 -0.0365  0.0793  0.0272
    1CHOL    R427293  12.737  19.173   3.800  0.0669  0.1116  0.0208
    1CHOL    R527294  12.879  19.017   3.855  0.0142  0.0634  0.0147
    1CHOL    C127295  12.636  18.993   4.149  0.0362  0.1677  0.0409
    1CHOL    C227296  12.692  18.931   4.430  0.0891  0.1129 -0.0341
    1CHOL   ROH27297  12.091  14.940   6.602  0.0091  0.3121  0.0473
    1CHOL    R127298  12.135  14.797   6.362 -0.0055  0.2045  0.1078
    1CHOL    R227299  11.956  14.800   6.152 -0.0404  0.0737  0.1339
    1CHOL    R327300  12.174  14.878   6.010 -0.0761  0.0433  0.0620
    1CHOL    R427301  11.998  14.753   5.812 -0.1642  0.0800  0.1174
    1CHOL    R527302  12.207  14.703   5.850 -0.1593  0.0444  0.0438
    1CHOL    C127303  12.227  14.798   5.481 -0.2699  0.0550  0.0402
    1CHOL    C227304  12.461  14.954   5.251 -0.1667  0.0854  0.2865
    1CHOL   ROH27305  26.394  19.623   3.546  0.0402  0.1112  0.2616
    1CHOL    R127306  26.278  19.498   3.771  0.0209  0.0036  0.1918
    1CHOL    R227307  26.006  19.449   3.790  0.0174  0.0141  0.1544
    1CHOL    R327308  26.088  19.194   3.835 -0.0047 -0.0161  0.0275
    1CHOL    R427309  25.855  19.229   4.010 -0.0460 -0.1068 -0.0076
    1CHOL    R527310  26.053  19.160   4.069 -0.0628 -0.1495  0.0013
    1CHOL    C127311  25.844  18.861   4.179 -0.1036 -0.2054 -0.2211
    1CHOL    C227312  25.954  18.596   4.387  0.1385 -0.5122  0.0737
    1CHOL   ROH27313  14.856   8.314   6.916  0.2603  0.1116 -0.0293
    1CHOL    R127314  14.824   8.325   6.635  0.3259  0.1096 -0.0372
    1CHOL    R227315  14.635   8.484   6.513  0.1034 -0.1658 -0.0629
    1CHOL    R327316  14.849   8.578   6.375  0.0008  0.2019  0.0167
    1CHOL    R427317  14.658   8.495   6.168  0.2979 -0.3440 -0.0569
    1CHOL    R527318  14.866   8.432   6.186  0.4306  0.1057  0.1192
    1CHOL    C127319  14.873   8.589   5.838  0.3148 -0.1026  0.0214
    1CHOL    C227320  14.846   8.729   5.472 -0.1883 -0.0770  0.0450
    1CHOL   ROH27321  22.252  16.477   6.046 -0.0636  0.0607  0.0416
    1CHOL    R127322  22.356  16.584   5.806  0.1698  0.0225  0.1230
    1CHOL    R227323  22.197  16.708   5.617  0.3010 -0.2675 -0.1904
    1CHOL    R327324  22.374  16.912   5.649  0.0362 -0.0528 -0.0518
    1CHOL    R427325  22.230  16.977   5.403  0.1643 -0.2391 -0.1758
    1CHOL    R527326  22.446  16.964   5.427  0.1629  0.0188  0.0060
    1CHOL    C127327  22.415  17.325   5.308 -0.1637 -0.0207 -0.0372
    1CHOL    C227328  22.442  17.580   5.012 -0.1088 -0.0734 -0.1584
    1CHOL   ROH27329  21.220  12.087   3.328 -0.1207  0.2670 -0.2344
    1CHOL    R127330  21.179  12.283   3.528  0.0948  0.3423 -0.2631
    1CHOL    R227331  21.158  12.220   3.796 -0.1498  0.3800 -0.2796
    1CHOL    R327332  21.358  12.403   3.822  0.1397  0.0629 -0.1704
    1CHOL    R427333  21.249  12.373   4.092 -0.0969  0.2470 -0.2252
    1CHOL    R527334  21.274  12.559   3.983  0.2782  0.2123 -0.2306
    1CHOL    C127335  21.489  12.633   4.289  0.2057 -0.1280 -0.0909
    1CHOL    C227336  21.325  12.513   4.694 -0.3270  0.1596 -0.2135
    1CHOL   ROH27337   7.129   5.471   3.903  0.1323 -0.0999 -0.2553
    1CHOL    R127338   7.265   5.471   4.151  0.1062  0.0387 -0.2410
    1CHOL    R227339   7.235   5.674   4.336 -0.1214  0.0105 -0.2435
    1CHOL    R327340   7.173   5.469   4.503  0.0698 -0.0565 -0.2513
    1CHOL    R427341   7.227   5.696   4.681 -0.0856 -0.0326 -0.2393
    1CHOL    R527342   7.319   5.498   4.691  0.0748  0.0412 -0.2717
    1CHOL    C127343   7.164   5.515   5.039  0.1148 -0.1206 -0.2443
    1CHOL    C227344   7.186   5.650   5.398  0.0472  0.1082  0.1377
    1CHOL   ROH27345  27.158  28.589   3.806  0.0834 -0.0526  0.0997
    1CHOL    R127346  27.085  28.557   4.078 -0.0234 -0.0681  0.0693
    1CHOL    R227347  26.836  28.628   4.174 -0.0789 -0.1241 -0.0358
    1CHOL    R327348  26.834  28.371   4.264 -0.0601 -0.1241 -0.0342
    1CHOL    R427349  26.715  28.528   4.482 -0.0978 -0.1313 -0.0454
    1CHOL    R527350  26.884  28.390   4.498 -0.0832 -0.1147 -0.0285
    1CHOL    C127351  26.643  28.229   4.746 -0.0913 -0.1356 -0.0494
    1CHOL    C227352  26.573  28.356   5.090  0.0929  0.0323 -0.1442
    1CHOL   ROH27353   1.012  12.674   5.633 -0.2105  0.2072 -0.0729
    1CHOL    R127354   0.956  12.683   5.355 -0.1117  0.2317 -0.0916
    1CHOL    R227355   1.021  12.900   5.197  0.1093  0.1689 -0.0831
    1CHOL    R327356   1.148  12.712   5.048  0.0127  0.0611 -0.0329
    1CHOL    R427357   1.066  12.915   4.854 -0.0803 -0.0503 -0.1215
    1CHOL    R527358   1.024  12.702   4.844 -0.1051 -0.0589  0.0393
    1CHOL    C127359   1.212  12.748   4.515 -0.2814 -0.2790 -0.0967
    1CHOL    C227360   1.176  12.966   4.108 -0.1935 -0.2189  0.0804
    1W        W27361   9.164   9.212   7.432  0.0370 -0.3869 -0.1009
    1W        W27362  28.059  26.105   1.942  0.0562  0.1215  0.3352
    1W        W27363  25.160   4.926   0.747 -0.1284 -0.2148  0.2979
    1W        W27364   8.861  19.138   1.381 -0.2510 -0.2565  0.0540
    1W        W27365  13.905   0.257   9.593  0.1661  0.1447 -0.2964
    1W        W27366   1.634  21.019   2.766  0.0487  0.0871 -0.1527
    1W        W27367  18.091  18.413   2.405 -0.1082 -0.0054 -0.0670
    1W        W27368   0.184   5.944   0.337  0.2585 -0.0142 -0.1420
    1W        W27369  10.633  12.830   9.209 -0.1737 -0.1937  0.3251
    1W        W27370  23.834  10.849   3.052  0.1397  0.2091 -0.0069
    1W        W27371   5.103  11.699   8.857 -0.1577  0.0687 -0.5430
    1W        W27372  18.019  20.949   7.317  0.1297  0.1105  0.0651
    1W        W27373   4.582   2.984   1.193 -0.4146 -0.0311 -0.1604
    1W        W27374  27.646   0.604   1.886  0.1852 -0.1817  0.2208
    1W        W27375  22.483  10.062   7.279 -0.1217  0.1124  0.1293
    1W        W27376   5.594   8.043   8.188 -0.1711 -0.0951  0.0543
    1W        W27377  22.083  17.914   8.401  0.2453  0.0607 -0.0118
    1W        W27378  21.387  26.826   7.982 -0.2445  0.1817 -0.1512
    1W        W27379   3.194  28.083   1.924 -0.0581  0.1644 -0.1068
    1W        W27380  12.018  28.393   9.245 -0.3948  0.2666 -0.0046
    1W        W27381   6.846   0.382   7.502  0.0826 -0.1488  0.0419
    1W        W27382   8.936  11.258   9.316  0.0337  0.0860  0.0229
    1W        W27383  26.974   1.010   7.625 -0.1275  0.2448  0.1004
    1W        W27384   8.227  13.072   0.267 -0.1070 -0.0274  0.0297
    1W        W27385  28.618  20.167   6.766  0.0130 -0.0692 -0.2597
    1W        W27386  10.358  14.599   1.031 -0.0521  0.1953  0.1840
    1W        W27387   3.154  24.725   0.821  0.3112  0.0761 -0.1607
    1W        W27388  16.352  16.404   0.581  0.1035 -0.2049  0.2253
    1W        W27389  11.497  19.163   7.736  0.0105  0.1201 -0.0322
    1W        W27390  17.042   9.338   8.686 -0.2643 -0.2092  0.0341
    1W        W27391  23.815  23.469   2.744  0.2528 -0.3717  0.1525
    1W        W27392   7.557  18.918   6.646 -0.0201 -0.0447  0.1427
    1W        W27393  12.956   6.819   8.168 -0.0481 -0.1718 -0.0169
    1W        W27394  20.652   6.106   2.843 -0.0361  0.1922  0.1007
    1W        W27395  29.242   9.875   6.567 -0.2990  0.0553  0.1079
    1W        W27396  27.314   3.852   0.337 -0.0533 -0.0523  0.2782
    1W        W27397   6.293  24.801   2.867 -0.0019 -0.0382  0.1753
    1W        W27398  13.477  18.478   2.180 -0.1716 -0.0693  0.2360
    1W        W27399  20.890  23.254   9.183  0.1474  0.0656 -0.3361
    1W        W27400   0.196   8.861   0.523 -0.1893 -0.0229  0.1792
    1W        W27401   8.093  13.600   9.114 -0.0900 -0.0137  0.1288
    1W        W27402   2.210  25.120   1.666 -0.0543  0.4031 -0.2211
    1W        W27403  12.675  19.122   8.766  0.0175  0.2782 -0.1179
    1W        W27404  22.012   9.632   8.602 -0.1012 -0.2378 -0.3897
    1W        W27405  19.272  27.486   0.655  0.2329 -0.2334  0.0373
    1W        W27406  20.887   7.494   6.681 -0.1026  0.0727 -0.0939
    1W        W27407  13.305  11.707   8.484  0.0683  0.0045  0.3607
    1W        W27408  24.440  21.759   0.838  0.1469  0.1402  0.0545
    1W        W27409   3.277  14.681   5.839  0.0212  0.1237 -0.1561
    1W        W27410   5.427  28.091   7.988  0.1531  0.2982 -0.0782
    1W        W27411  19.106   5.331   0.370 -0.2465 -0.0202  0.0317
    1W        W27412  21.653  15.802   1.347 -0.0660  0.1164 -0.4112
    1W        W27413   8.949  10.583   8.443  0.0339  0.1549 -0.1469
    1W        W27414   1.573   6.976   1.747 -0.0245  0.2138  0.1674
    1W        W27415  17.846  24.306   8.171  0.0017  0.2269 -0.2347
    1W        W27416  28.818  28.698   7.964 -0.2568  0.2705 -0.3320
    1W        W27417  26.265  17.997   9.131  0.1799 -0.1925  0.4211
    1W        W27418  12.557  22.341   6.115 -0.0519  0.0377  0.0606
    1W        W27419  15.652  25.485   1.667  0.0226  0.0897  0.1148
    1W        W27420  11.527  24.260   3.177 -0.1625  0.0461 -0.0250
    1W        W27421  12.710  22.796   7.208  0.3327 -0.0430 -0.0519
    1W        W27422   4.421   8.952   0.500  0.1182  0.0840  0.3722
    1W        W27423   0.434  19.439   0.490  0.1165 -0.3998  0.0861
    1W        W27424   7.692  19.881   0.823  0.3257 -0.1020  0.0258
    1W        W27425  29.289  11.819   6.330 -0.1975 -0.1456 -0.0221
    1W        W27426  12.338  14.947   2.230  0.2968  0.0235  0.0494
    1W        W27427  14.814  17.172   0.209  0.0816 -0.2057  0.3129
    1W        W27428  12.559   1.468   0.184 -0.0424 -0.0691 -0.1921
    1W        W27429  26.282   4.310   7.362 -0.2997  0.2915 -0.0903
    1W        W27430  20.835   5.363   3.176  0.1466  0.0384  0.0144
    1W        W27431  13.743  18.010   9.426  0.1782  0.1954  0.0300
    1W        W27432  19.481   6.168   8.558 -0.4036  0.1502 -0.0857
    1W        W27433  20.625   6.406   2.465 -0.0881  0.1086 -0.0401
    1W        W27434  27.223  22.778   0.306  0.0476 -0.3338  0.2056
    1W        W27435   2.481  14.846   6.456  0.0304 -0.2126 -0.1878
    1W        W27436  16.913  15.029   2.086 -0.1439  0.0778  0.0552
    1W        W27437   9.857   7.233   1.229 -0.1762  0.1479  0.4881
    1W        W27438  26.744   8.576   1.034 -0.2004 -0.2515 -0.1131
    1W        W27439  24.598  12.264   8.454 -0.1613 -0.4265 -0.0711
    1W        W27440   3.712  20.105   0.690  0.1873  0.1430  0.1535
    1W        W27441  11.736  22.279   9.337 -0.2621 -0.3302  0.1139
    1W        W27442   0.029  25.404   2.312  0.0686 -0.1617 -0.1924
    1W        W27443   3.476  11.047   1.763  0.2083  0.0719 -0.0207
    1W        W27444  19.183   9.403   0.776  0.0579 -0.0901  0.1155
    1W        W27445  18.591   0.937   8.714 -0.0343 -0.0120  0.3451
    1W        W27446  19.221  10.798   2.242  0.0195 -0.1580 -0.1131
    1W        W27447   5.592  13.314   8.751  0.1269  0.0762  0.1408
    1W        W27448  10.376  12.193   9.668 -0.1488 -0.2089 -0.0014
    1W        W27449   8.278  19.906   7.176  0.1951 -0.1991  0.1485
    1W        W27450   0.118   0.513   8.694 -0.0042 -0.0480  0.2547
    1W        W27451  16.437   6.264   8.379 -0.1183 -0.0864  0.0457
    1W        W27452  22.520  22.861   1.786  0.1693 -0.2634 -0.0380
    1W        W27453   4.547   4.796   2.132 -0.1107 -0.0094 -0.0503
    1W        W27454  15.798   9.621   1.245 -0.1393  0.1366 -0.2682
    1W        W27455  19.625   1.415   0.345  0.1446 -0.0834 -0.1170
    1W        W27456  19.388  18.651   2.744  0.1125 -0.1060  0.0343
    1W        W27457  11.345   1.639   7.964 -0.1165 -0.0963  0.2409
    1W        W27458  10.781  26.628   0.409  0.1929 -0.1706  0.1742
    1W        W27459  17.326   4.392   9.376 -0.0796  0.0939  0.0611
    1W        W27460   6.618  18.485   0.700 -0.0295 -0.2204  0.0344
    1W        W27461   8.063   6.431   8.155 -0.0842 -0.2568 -0.0391
    1W        W27462  19.035  29.026   7.835 -0.1367 -0.0540  0.0731
    1W        W27463  22.956  10.579   2.135  0.1452 -0.0338  0.2365
    1W        W27464   2.485  12.710   7.100  0.0779  0.0110  0.2403
    1W        W27465   8.570   9.969   0.393 -0.3370  0.2314 -0.4033
    1W        W27466  15.153   1.691   2.089 -0.0990  0.1952  0.0607
    1W        W27467  29.342   8.337   2.640 -0.0990 -0.0438 -0.0835
    1W        W27468  18.336  22.286   9.479  0.3967 -0.1348 -0.2244
    1W        W27469   2.613  24.695   0.686 -0.4115  0.1061  0.0248
    1W        W27470  23.147  11.558   9.189  0.1543  0.0114 -0.1902
    1W        W27471   8.210  16.567   7.651 -0.0866 -0.2269  0.1607
    1W        W27472  24.063  22.112   0.531  0.0781  0.0020  0.4036
    1W        W27473  15.717  19.003   8.887  0.2164 -0.0011  0.0270
    1W        W27474  11.767  22.749   2.220  0.0051 -0.0993 -0.5013
    1W        W27475  11.608   0.681   4.540  0.2036 -0.4810  0.1113
    1W        W27476  20.579  11.754   9.241 -0.2239 -0.0779 -0.2424
    1W        W27477  12.661  11.355   1.451  0.1487 -0.0825  0.1650
    1W        W27478  11.818   6.536   7.280  0.0579 -0.0421  0.1843
    1W        W27479   2.358  17.855   7.847 -0.0507 -0.4071  0.0758
    1W        W27480   0.724  28.021   1.244  0.1874  0.1658 -0.1043
    1W        W27481  13.988   7.917   2.987  0.2132 -0.0608 -0.1206
    1W        W27482   3.638   9.263   5.769 -0.0206 -0.0879  0.1950
    1W        W27483   5.046  18.464   1.761  0.2477  0.1653 -0.0164
    1W        W27484   8.291  13.840   1.324 -0.0311  0.1544 -0.3279
    1W        W27485  29.225   5.432   8.784 -0.0176 -0.2590 -0.0014
    1W        W27486  11.089  28.671   1.112 -0.1736  0.1317 -0.1616
    1W        W27487   3.553   6.390   8.221  0.3669 -0.2476 -0.3124
    1W        W27488   4.762   2.688   8.488 -0.2843 -0.0073  0.2100
    1W        W27489  17.294   0.626   2.896 -0.0927  0.2562  0.2062
    1W        W27490  28.257  28.354   9.667  0.0214 -0.0246 -0.0230
    1W        W27491  17.523   3.361   2.642  0.0366  0.1585  0.0606
    1W        W27492  27.038   8.051   1.175 -0.0269 -0.0991  0.0203
    1W        W27493  23.972  19.770   8.193 -0.1331 -0.2580 -0.0561
    1W        W27494  17.310  25.861   2.953 -0.2085  0.0143  0.1326
    1W        W27495  18.059  13.405   9.376 -0.0591 -0.1223 -0.0412
    1W        W27496   6.568   6.299   0.575  0.0610  0.1891  0.1645
    1W        W27497  24.138   7.843   8.562 -0.3585 -0.0519 -0.1088
    1W        W27498  14.130   2.628   3.156 -0.0991  0.1958 -0.1337
    1W        W27499   9.236   7.266   9.092  0.0758  0.0766  0.0392
    1W        W27500  26.494   4.472   1.440  0.0311 -0.0075  0.2368
    1W        W27501  16.231   0.516   1.728 -0.3376  0.1580  0.1016
    1W        W27502  17.696  24.957   2.849  0.0271  0.2857 -0.1835
    1W        W27503  12.070   9.008   9.537  0.1818  0.0224 -0.0847
    1W        W27504   5.962  12.987   7.309 -0.0616 -0.0282 -0.3682
    1W        W27505  23.156  19.019   1.504  0.1921  0.0391 -0.1303
    1W        W27506   5.906  17.799   0.815  0.0991 -0.1709  0.1091
    1W        W27507  20.179  22.049   7.158 -0.3123 -0.3546  0.0271
    1W        W27508  20.722   4.606   8.124  0.1747 -0.2455 -0.0349
    1W        W27509  28.983   8.149   0.173  0.0593  0.2820  0.3089
    1W        W27510  22.896   5.497   1.301  0.0438 -0.1501 -0.0089
    1W        W27511   3.648   0.956   6.636  0.1018  0.2961  0.2399
    1W        W27512   8.118   2.085   8.493  0.0090 -0.0986 -0.0831
    1W        W27513  10.297  28.690   8.459 -0.0600  0.0802  0.3794
    1W        W27514  20.441  25.109   0.554  0.1522  0.3451 -0.1669
    1W        W27515  23.428  11.109   7.817 -0.0370 -0.0601  0.0422
    1W        W27516  10.155  14.195   8.794  0.0990 -0.0716 -0.0003
    1W        W27517   0.651   5.105   8.788 -0.0253  0.0785 -0.0053
    1W        W27518  28.657   2.612   9.069 -0.0575 -0.1539 -0.0431
    1W        W27519  26.543   1.833   9.312  0.3360 -0.0052  0.0712
    1W        W27520  16.466  25.777   1.092 -0.1509 -0.2838 -0.0519
    1W        W27521  18.688  10.518   9.387 -0.0632 -0.0588 -0.1596
    1W        W27522  12.055   4.504   3.154 -0.3658  0.2665 -0.0484
    1W        W27523  22.925  20.561   0.406  0.0744 -0.3028 -0.0974
    1W        W27524   9.214  19.143   8.857 -0.0463 -0.2184 -0.3859
    1W        W27525  26.776   8.191   2.308 -0.2006 -0.2402  0.0259
    1W        W27526   9.398   7.497   7.115  0.0115  0.2180  0.5570
    1W        W27527   0.264  26.911   0.057 -0.3322 -0.0419 -0.0054
    1W        W27528  18.782  25.667   3.385 -0.2870 -0.1964  0.2356
    1W        W27529   7.220   6.729   9.472 -0.0317  0.3358  0.1057
    1W        W27530  19.746   1.809   6.944  0.1157  0.0186 -0.3241
    1W        W27531  12.396  22.421   7.082 -0.1044 -0.0957 -0.0616
    1W        W27532   4.988  15.742   6.750  0.2023  0.1470 -0.1149
    1W        W27533   1.641  20.344   5.962  0.1458 -0.0812 -0.4373
    1W        W27534  25.026  27.798   7.084 -0.0916 -0.1215 -0.0489
    1W        W27535  17.268  23.918   9.312 -0.1502 -0.1193  0.2716
    1W        W27536  20.194  15.359   0.234 -0.2180 -0.2145  0.2257
    1W        W27537  23.460  14.032   6.471 -0.1400 -0.1572 -0.1614
    1W        W27538  18.812   8.496   7.283 -0.1514 -0.1308  0.0164
    1W        W27539  14.772  25.932   7.684  0.0373  0.2377 -0.2622
    1W        W27540   3.392   7.238   6.676  0.0083  0.2397 -0.0075
    1W        W27541  24.956  24.710   3.083 -0.0785 -0.1210  0.1167
    1W        W27542  10.587  14.894   9.619  0.0513  0.0727  0.1499
    1W        W27543  24.550  25.614   0.784  0.3329  0.0769  0.2808
    1W        W27544  23.876  27.996   7.739 -0.0576  0.2286 -0.1124
    1W        W27545  21.498   1.262   9.112 -0.2238  0.5001  0.0994
    1W        W27546  23.869   3.399   2.277 -0.0797  0.3514 -0.2374
    1W        W27547  21.376  19.389   7.526 -0.1263  0.2372 -0.0264
    1W        W27548   3.121  25.189   0.713  0.1054 -0.0196  0.3448
    1W        W27549   7.103  28.465   0.809 -0.0627 -0.0476 -0.1632
    1W        W27550   3.634  23.880   8.952 -0.3192  0.1252 -0.0019
    1W        W27551  26.744  21.951   0.078 -0.1619  0.2708  0.1045
    1W        W27552  28.465  19.171   2.457 -0.0362  0.2900  0.0066
    1W        W27553   3.089   3.991   7.892 -0.1195 -0.0341 -0.1215
    1W        W27554   3.230  21.431   2.020  0.0474 -0.1703  0.1468
    1W        W27555   1.908   5.828   4.804  0.3002 -0.0040 -0.0592
    1W        W27556   7.617  24.322   2.580  0.2889  0.2032 -0.0883
    1W        W27557   6.960  23.751   2.302  0.0667  0.4833  0.2317
    1W        W27558  16.384  22.362   0.480 -0.0334  0.1658  0.2722
    1W        W27559  12.847   2.458   2.207 -0.1186 -0.1655 -0.1465
    1W        W27560  26.705  18.338   7.071  0.2461 -0.0594 -0.0672
    1W        W27561   4.216  28.022   0.303  0.2057 -0.2009  0.0470
    1W        W27562   4.162   4.309   0.206  0.1572 -0.0011 -0.0041
    1W        W27563   0.917  12.156   2.052 -0.1415 -0.0327  0.0440
    1W        W27564   6.059  11.468   8.694  0.2391 -0.0177  0.3359
    1W        W27565  24.487  26.647   6.786  0.1595 -0.1977  0.2158
    1W        W27566  21.827  23.624   6.820 -0.2225 -0.1232 -0.1411
    1W        W27567  21.374  25.417   2.507  0.0698  0.1101 -0.0438
    1W        W27568  16.989  13.724   7.916  0.0750 -0.1776  0.0824
    1W        W27569  24.190  28.387   5.929 -0.0939  0.0950  0.2276
    1W        W27570   6.156  20.413   7.898 -0.1904  0.0220 -0.3043
    1W        W27571  20.464  21.236   1.747 -0.4300  0.1719  0.0803
    1W        W27572   0.486   2.776   2.185  0.2761 -0.2413  0.0190
    1W        W27573  14.308   3.509   2.173 -0.2845  0.3322  0.0154
    1W        W27574   3.398  11.533   7.615  0.1722 -0.2079  0.1576
    1W        W27575  26.498  16.738   0.399 -0.0836 -0.1397 -0.2212
    1W        W27576   6.487  15.695   8.723 -0.2091  0.0886 -0.3197
    1W        W27577   5.041  25.290   0.459 -0.4547  0.0590 -0.0743
    1W        W27578   3.732  23.812   2.937  0.0855  0.0562 -0.1974
    1W        W27579  10.229  26.995   7.722  0.1947 -0.2412 -0.3027
    1W        W27580  20.815   5.132   2.589  0.3062  0.2730  0.0591
    1W        W27581  21.888  17.907   2.015 -0.0043 -0.2242 -0.0649
    1W        W27582   7.822  23.761   6.880  0.1039 -0.3909  0.1417
    1W        W27583   7.095  11.444   7.242 -0.1376 -0.1041  0.2238
    1W        W27584   6.008  19.540   0.509  0.0399 -0.2801 -0.4803
    1W        W27585   0.211  16.730   9.610  0.0321 -0.0214  0.0556
    1W        W27586  15.842   8.070   2.326  0.0557  0.1894 -0.0984
    1W        W27587  15.401   5.185   0.770 -0.3186 -0.0226  0.1656
    1W        W27588   3.223  16.018   8.437 -0.2591  0.1093  0.0199
    1W        W27589  13.237  10.456   7.253 -0.2346  0.1772  0.3543
    1W        W27590   9.793   8.306   8.395 -0.1126 -0.1468  0.1104
    1W        W27591   0.208  11.930   1.125  0.1878  0.0522  0.0224
    1W        W27592   8.753   6.769   8.712  0.2276 -0.0725  0.0632
    1W        W27593  24.489  18.076   8.175  0.2177  0.0660  0.2091
    1W        W27594  16.687  21.841   1.220 -0.2274 -0.1144 -0.2322
    1W        W27595  16.680  18.638   0.073  0.1365 -0.0370  0.2526
    1W        W27596   6.359  10.092   9.541 -0.1185 -0.0668 -0.0999
    1W        W27597  11.327   3.085   8.660 -0.1102 -0.3916 -0.3214
    1W        W27598  14.191   8.469   1.019 -0.0813  0.0558 -0.0299
    1W        W27599  16.092  14.792   2.014  0.1257 -0.0036  0.3450
    1W        W27600  17.996  10.502   9.239  0.0668  0.1974  0.1031
    1W        W27601  10.113   3.631   2.227  0.1716 -0.2578 -0.1743
    1W        W27602  27.836  16.066   7.227  0.3488  0.1418  0.0629
    1W        W27603  18.471  27.459   0.277  0.1069 -0.0013 -0.2320
    1W        W27604   2.182   3.376   0.028  0.2009  0.1418 -0.0623
    1W        W27605  10.655   0.949   6.943 -0.1840  0.3200  0.1386
    1W        W27606  19.578   6.494   9.541 -0.1226 -0.2166  0.0683
    1W        W27607   8.281  15.621   1.904  0.0168  0.1090  0.0660
    1W        W27608  26.574   9.885   1.617  0.0084 -0.0612 -0.0006
    1W        W27609  18.456  23.644   8.858  0.1879  0.2025  0.1089
    1W        W27610   3.317  16.320   5.645 -0.0775 -0.0561 -0.0137
    1W        W27611  29.306   4.979   6.391  0.2444  0.1458 -0.3684
    1W        W27612   7.402  22.815   7.209  0.1928  0.2314 -0.0040
    1W        W27613  18.059  23.986   1.198 -0.0015  0.0537 -0.1194
    1W        W27614  23.513  27.176   8.423  0.0081  0.0743  0.0608
    1W        W27615  13.948   5.884   2.432 -0.1971  0.2957  0.2783
    1W        W27616  25.623  16.820   1.959 -0.1027  0.0395 -0.0202
    1W        W27617   3.632  18.809   9.583  0.0198  0.0799 -0.0603
    1W        W27618   7.453  11.929   0.567  0.2295 -0.3446 -0.0723
    1W        W27619  23.119  19.077   2.670  0.1322  0.0671  0.0480
    1W        W27620   3.841  18.070   5.892 -0.0556 -0.1851 -0.0900
    1W        W27621  26.934   1.518   2.354 -0.4072  0.3601  0.1070
    1W        W27622   9.033  10.840   2.248  0.1225  0.2871  0.3568
    1W        W27623  15.753  21.163   7.335  0.3332  0.2655 -0.0385
    1W        W27624   6.366  19.726   8.653 -0.1153  0.0054  0.1732
    1W        W27625  28.542   7.832   9.606 -0.1841  0.3137 -0.1766
    1W        W27626  24.256   3.362   7.988  0.0452  0.0709  0.1129
    1W        W27627   6.653   9.557   0.681 -0.3939 -0.1294 -0.1529
    1W        W27628  27.646  23.141   2.452  0.0387 -0.0027  0.0949
    1W        W27629  16.747   9.726   9.011 -0.0884 -0.1756 -0.0261
    1W        W27630  26.636   3.112   1.045 -0.0062 -0.1983  0.1765
    1W        W27631   3.521  14.468   2.696 -0.2302  0.2282 -0.1233
    1W        W27632  18.822  23.500   0.923  0.1394 -0.0771 -0.1918
    1W        W27633  19.469  22.166   8.431 -0.2597 -0.0798 -0.0132
    1W        W27634  16.398  26.227   3.186  0.3659 -0.3102  0.0951
    1W        W27635  26.686  28.182   5.936  0.1644  0.1383 -0.1560
    1W        W27636  19.814  15.823   1.115  0.1413 -0.1818 -0.2584
    1W        W27637  10.689  13.927   8.745 -0.0690  0.1717 -0.2303
    1W        W27638  20.888   6.514   1.612  0.1050 -0.1239 -0.2642
    1W        W27639  10.555   6.937   8.036  0.0354  0.1031 -0.0770
    1W        W27640   1.082  18.930   9.378  0.0657 -0.1963 -0.0316
    1W        W27641  26.769  23.467   9.225 -0.0678  0.1058  0.1336
    1W        W27642  22.574  22.322   3.219 -0.1215  0.0333  0.3621
    1W        W27643  13.609  20.166   0.387  0.1077 -0.0748  0.1002
    1W        W27644   2.050   7.840   7.250  0.0564  0.3415  0.0589
    1W        W27645  21.433   7.766   8.909  0.0830 -0.0208 -0.1761
    1W        W27646  20.829  13.989   7.169  0.3721  0.2759 -0.0085
    1W        W27647  10.646  24.408   8.027 -0.3357 -0.1446  0.0778
    1W        W27648  14.040  16.893   8.630 -0.1063  0.1316 -0.1354
    1W        W27649  11.235   7.726   0.390 -0.2371 -0.3726  0.0190
    1W        W27650   3.168   8.196   0.620  0.0162  0.0162  0.2394
    1W        W27651   7.612   7.945   8.083  0.2087 -0.0414  0.0949
    1W        W27652  23.727  13.361   0.366  0.2783 -0.0250 -0.0411
    1W        W27653   1.813   8.331   7.344 -0.0136 -0.0069 -0.1280
    1W        W27654  21.018   6.732   0.150  0.2573 -0.1480 -0.1541
    1W        W27655   2.919  14.283   9.180  0.1480 -0.0773  0.0090
    1W        W27656  27.682  15.440   9.520  0.1615  0.1867  0.1144
    1W        W27657  23.348  16.178   8.453  0.0083 -0.0261  0.0957
    1W        W27658  20.912  28.652   2.351  0.0945  0.0497 -0.3156
    1W        W27659  25.073  10.936   7.844  0.3229  0.0965 -0.0585
    1W        W27660  16.124  20.935   0.035 -0.3518  0.3851 -0.3371
    1W        W27661  21.403  10.971   0.207 -0.0131  0.0136 -0.0413
    1W        W27662  18.496  18.209   8.752  0.1090 -0.0814 -0.4161
    1W        W27663   2.773  24.502   8.154  0.1999  0.1117  0.1756
    1W        W27664  24.294   2.893   8.851  0.2504  0.1200  0.1465
    1W        W27665  21.523   9.270   2.116 -0.1373  0.0210  0.2342
    1W        W27666  25.289  12.341   0.408  0.1749  0.2453  0.0976
    1W        W27667  23.202   7.779   6.482  0.0973  0.0858  0.0174
    1W        W27668  23.214  20.814   0.805  0.0110  0.5846  0.5224
    1W        W27669   4.875  22.584   7.804 -0.0393 -0.2008 -0.0789
    1W        W27670  11.475   0.853   8.650  0.2120 -0.1668  0.0772
    1W        W27671   7.241   6.953   7.408  0.0203  0.0209  0.0562
    1W        W27672  23.193  25.816   1.877  0.0674  0.2000 -0.0533
    1W        W27673  13.231   3.574   9.288  0.0536  0.1476  0.0961
    1W        W27674  16.485   4.181   7.504  0.2069 -0.1170 -0.1974
    1W        W27675  24.901  28.182   6.467 -0.0556 -0.3201  0.0395
    1W        W27676  20.737  17.597   1.098  0.0243 -0.0780  0.1992
    1W        W27677   4.212   1.611   1.366 -0.6063  0.2984 -0.1893
    1W        W27678   8.126  24.261   2.497  0.1457  0.3850 -0.1881
    1W        W27679  25.930  23.474   2.781 -0.0197  0.2755 -0.2570
    1W        W27680  15.841   8.841   1.673  0.1340  0.2980  0.1446
    1W        W27681   2.146   4.280   1.344  0.1869 -0.3111 -0.1899
    1W        W27682   4.196   7.514   1.690 -0.2333  0.3520 -0.0330
    1W        W27683  22.514   0.753   2.902  0.0839 -0.3771 -0.1187
    1W        W27684  11.711  15.283   6.785  0.1726  0.0905 -0.0435
    1W        W27685  26.190  24.953   3.152 -0.0151  0.1568 -0.1074
    1W        W27686  25.726   7.556   0.443 -0.0749  0.1842 -0.1139
    1W        W27687   4.441  22.983   6.048  0.1970 -0.0585 -0.1785
    1W        W27688  12.180  19.582   0.024  0.0121  0.1673  0.2764
    1W        W27689  15.575  27.027   0.830 -0.2600  0.2211 -0.1548
    1W        W27690  23.247  20.362   8.687 -0.1530 -0.0554 -0.1666
    1W        W27691  15.774  29.314   7.231 -0.1037  0.1986  0.1728
    1W        W27692   2.819  18.393   2.433  0.1680  0.0993  0.0125
    1W        W27693  23.184  23.557   8.384 -0.3793  0.2032  0.1722
    1W        W27694  13.797   0.986   0.074 -0.2765 -0.2735 -0.0746
    1W        W27695  24.717  26.487   7.224  0.0776  0.2982 -0.2600
    1W        W27696   2.577   9.214   9.009 -0.2413  0.1091 -0.0469
    1W        W27697  21.504  10.976   6.506 -0.0512 -0.2193  0.4061
    1W        W27698  10.763  28.841   8.429 -0.1879  0.2947  0.2065
    1W        W27699  20.024   3.115   8.797  0.0159 -0.0303 -0.0177
    1W        W27700  11.554  10.754   0.726 -0.1178 -0.1333 -0.2183
    1W        W27701   3.526  19.635   0.844  0.2512 -0.0901  0.3299
    1W        W27702  12.273  16.990   1.657  0.4098  0.0835  0.1160
    1W        W27703  22.808  20.081   8.586 -0.0543  0.0312 -0.0039
    1W        W27704  10.555  26.921   9.442 -0.2905  0.2392  0.1791
    1W        W27705  28.226  15.021   2.030 -0.5039  0.1144  0.0879
    1W        W27706  29.195  28.035   0.965 -0.1718 -0.3464  0.4262
    1W        W27707   4.318  23.654   9.530  0.4077 -0.1157 -0.2508
    1W        W27708  19.319  24.507   0.129 -0.0499 -0.3368  0.0606
    1W        W27709  15.562  11.563   8.258  0.0400 -0.1628 -0.1496
    1W        W27710   7.807  19.357   9.631 -0.0612 -0.0328 -0.0451
    1W        W27711  27.837  12.925   6.965 -0.0775 -0.0769  0.0085
    1W        W27712  19.052  19.928   8.435 -0.0781  0.0815  0.3826
    1W        W27713  28.341  27.915   8.817 -0.3944 -0.2180  0.0118
    1W        W27714   6.651   1.376   7.788  0.1262  0.0515  0.1986
    1W        W27715   1.588  28.246   9.479  0.0062  0.0227  0.0135
    1W        W27716   5.657   2.159   8.072  0.0137 -0.2677  0.1609
    1W        W27717   6.932   4.414   9.474  0.1770 -0.2551 -0.2689
    1W        W27718   6.350   1.690   9.061  0.0397 -0.0660 -0.1227
    1W        W27719  12.380  14.130   0.101 -0.0836 -0.1574  0.1299
    1W        W27720  12.273   5.397   1.918  0.2251 -0.0751  0.2597
    1W        W27721  21.771  29.339   8.607  0.0937  0.0164  0.0088
    1W        W27722  25.142   5.567   6.814  0.0784 -0.0518 -0.3473
    1W        W27723  20.227   1.701   2.853  0.2693  0.2265  0.0844
    1W        W27724  11.333  27.856   8.873 -0.1168 -0.0626  0.1841
    1W        W27725  24.288  24.681   1.562 -0.1081  0.0862  0.0207
    1W        W27726   2.705   8.665   9.046 -0.3590 -0.1778 -0.0283
    1W        W27727   0.098  15.398   1.526 -0.2555 -0.1569 -0.0509
    1W        W27728   5.301  10.435   7.261 -0.0154  0.1542 -0.0380
    1W        W27729  17.207   1.940   2.563 -0.3198 -0.2135  0.0684
    1W        W27730   8.643  28.951   0.959 -0.3646  0.0681  0.0936
    1W        W27731  25.050  22.307   3.119 -0.0237 -0.0909 -0.0940
    1W        W27732  19.505   0.878   6.652 -0.3438  0.1189  0.0528
    1W        W27733  25.771   3.515   1.801 -0.1324 -0.0766  0.0871
    1W        W27734  27.297  26.403   3.202 -0.0296 -0.0340 -0.0520
    1W        W27735  27.812  23.641   7.635 -0.1993 -0.1247 -0.1285
    1W        W27736   9.540  16.877   1.251 -0.0480  0.0143  0.0211
    1W        W27737   7.388   3.492   2.954 -0.0489 -0.3193  0.0348
    1W        W27738   8.412  20.928   8.092 -0.1779 -0.2926  0.0051
    1W        W27739  10.531  18.590   8.595 -0.1105 -0.1026 -0.0988
    1W        W27740  19.502  12.726   0.865  0.0748  0.3080 -0.0986
    1W        W27741  20.634  14.895   1.872  0.1490 -0.1085 -0.0681
    1W        W27742  24.665   0.335   8.806  0.6352 -0.1569 -0.4158
    1W        W27743  13.634   3.938   0.854  0.2714 -0.1203  0.0248
    1W        W27744  25.184  24.562   2.506  0.0476  0.1208 -0.0094
    1W        W27745   3.526  14.503   0.325 -0.1625 -0.1856 -0.0477
    1W        W27746  20.392  28.975   1.989 -0.1744  0.0961 -0.0065
    1W        W27747   2.139   5.933   6.661  0.2606  0.1464  0.0413
    1W        W27748   7.307  15.586   8.527  0.3624  0.0805 -0.1496
    1W        W27749   6.290  13.752   9.026 -0.2178 -0.2012  0.1123
    1W        W27750   9.499  12.432   7.051 -0.0918  0.2288  0.6186
    1W        W27751  21.499   4.877   2.745 -0.1813 -0.0835 -0.2018
    1W        W27752  13.439   6.588   2.124 -0.2238 -0.2520 -0.1533
    1W        W27753  10.581  27.078   2.807  0.0484  0.1696  0.3575
    1W        W27754  25.430  15.060   8.306  0.1505  0.2632 -0.0386
    1W        W27755   4.354  19.644   2.052  0.1845  0.1061  0.0387
    1W        W27756   3.539  27.405   9.455  0.1893  0.1747 -0.0123
    1W        W27757   7.230  21.233   9.262  0.0518  0.1360  0.0407
    1W        W27758  21.623   7.397   2.499 -0.0205 -0.0004 -0.0245
    1W        W27759   5.737  15.319   0.748  0.4502  0.1013  0.0744
    1W        W27760   0.517   8.390   6.324 -0.0949 -0.0029 -0.0467
    1W        W27761   6.219  18.654   9.463 -0.0854 -0.3639 -0.3251
    1W        W27762  28.556  18.903   0.778 -0.1012  0.0010 -0.0369
    1W        W27763  18.644  25.180   1.163  0.0237  0.0807 -0.1717
    1W        W27764  18.750   0.439   7.642 -0.1276 -0.2798 -0.0210
    1W        W27765  12.309  19.458   0.505  0.0731  0.2067  0.0625
    1W        W27766  28.021   4.540   1.783  0.0610  0.3025  0.2065
    1W        W27767  15.093  10.890   8.887  0.1758 -0.2709  0.0383
    1W        W27768  14.828  22.802   1.521  0.1812  0.1006  0.0659
    1W        W27769  11.249   9.316   3.138  0.1884  0.2041 -0.1257
    1W        W27770  21.296  15.583   7.908 -0.1971 -0.1218  0.0215
    1W        W27771  10.603  27.026   8.186  0.1356 -0.3216  0.3786
    1W        W27772  25.661  25.251   0.222  0.0501  0.0386 -0.0435
    1W        W27773  29.357  27.229   0.351 -0.1157 -0.2256 -0.2904
    1W        W27774   9.557   2.963   7.715 -0.1148 -0.2513 -0.0295
    1W        W27775  13.849   6.539   8.049 -0.2062 -0.0465 -0.1536
    1W        W27776   8.502  20.892   2.020  0.0151 -0.0503  0.2190
    1W        W27777   7.248   2.814   2.313 -0.0032 -0.1448 -0.1147
    1W        W27778  24.974   5.504   7.264 -0.0384 -0.0112  0.0111
    1W        W27779   1.049  18.782   1.654 -0.1851  0.1082 -0.1717
    1W        W27780   5.026   3.738   8.230 -0.1738 -0.2080  0.0818
    1W        W27781  28.378  17.431   6.788 -0.0246 -0.1035 -0.1700
    1W        W27782  28.069  28.619   8.553  0.2562 -0.0353 -0.2539
    1W        W27783   6.529  11.191   1.266 -0.0669 -0.0286 -0.1418
    1W        W27784   9.854   5.190   8.560 -0.0122 -0.0312  0.2019
    1W        W27785  18.474  13.579   2.222  0.3457  0.2998  0.1238
    1W        W27786  26.481   0.701   7.842 -0.0417  0.1718  0.2173
    1W        W27787  24.320  27.066   7.099  0.1800  0.0539 -0.2059
    1W        W27788  23.086  15.333   9.244 -0.1589 -0.4720  0.2494
    1W        W27789   2.394   4.596   7.298 -0.1488 -0.3428 -0.2458
    1W        W27790  26.680  11.460   2.317 -0.2405 -0.0057  0.1669
    1W        W27791   0.246  27.789   7.614 -0.1087 -0.0146  0.2173
    1W        W27792  10.579  17.743   1.336 -0.0713  0.2150 -0.3261
    1W        W27793  26.852  21.511   9.564  0.1814 -0.0835  0.1757
    1W        W27794  22.309  13.547   7.854  0.0183 -0.3510 -0.3016
    1W        W27795  16.167   1.699   9.414  0.1403  0.0326  0.0650
    1W        W27796   9.279  24.111   1.689  0.1143  0.3966 -0.0879
    1W        W27797  16.904   5.568   8.809 -0.0860 -0.2837 -0.0218
    1W        W27798  18.981   3.664   9.691 -0.3063  0.1718 -0.0578
    1W        W27799   5.436  28.978   2.683  0.1391  0.0287  0.0282
    1W        W27800  17.828  28.917   7.912 -0.2762  0.0980  0.3771
    1W        W27801  22.848  20.092   0.718  0.0257  0.2536 -0.3858
    1W        W27802  23.857  10.283   8.753  0.4226 -0.1446 -0.0591
    1W        W27803  19.966   9.433   8.384 -0.0227 -0.1515  0.2370
    1W        W27804  16.457  13.803   8.133 -0.0822 -0.0733 -0.1572
    1W        W27805  16.974  13.906   8.753  0.2731  0.2037 -0.3385
    1W        W27806  28.678  23.248   8.476 -0.2013 -0.2245 -0.1219
    1W        W27807  13.725  29.224   3.374 -0.0488  0.0414 -0.0699
    1W        W27808   3.453  12.032   1.624  0.1959 -0.1367  0.3273
    1W        W27809  12.488  10.889   2.635 -0.2461 -0.1193  0.1438
    1W        W27810   7.106  21.126   6.772 -0.0553  0.0230  0.0411
    1W        W27811  20.289   0.368   9.688 -0.1985  0.0931  0.1074
    1W        W27812   3.619  14.378   0.929  0.3480 -0.0632 -0.0825
    1W        W27813  14.096   7.077   9.426 -0.1344  0.1928 -0.0342
    1W        W27814   1.646  15.424   8.171  0.3046 -0.1484 -0.2047
    1W        W27815  24.912  12.997   8.206  0.1817  0.4076  0.4339
    1W        W27816   9.602  10.838   2.707  0.0504  0.1061  0.2116
    1W        W27817  21.854   5.317   0.314 -0.0960 -0.0091  0.0296
    1W        W27818   8.579  21.478   1.616 -0.2376 -0.1240 -0.3209
    1W        W27819   9.514   2.807   8.507  0.2681 -0.0745 -0.0977
    1W        W27820  18.938   3.711   0.969  0.0348  0.1745 -0.2220
    1W        W27821   1.480  11.938   2.254  0.0344 -0.1106  0.0855
    1W        W27822   1.546  18.150   1.946  0.1745 -0.4622 -0.1489
    1W        W27823  28.442   4.785   1.050 -0.3041 -0.0937  0.0183
    1W        W27824  28.396   3.624   3.355 -0.1700 -0.0267 -0.2198
    1W        W27825  10.933  22.629   8.600  0.0378 -0.0447  0.0925
    1W        W27826  28.316   5.874   1.895 -0.0028 -0.1638  0.2558
    1W        W27827  16.971   2.214   9.134  0.1471 -0.1615 -0.0796
    1W        W27828  28.097  14.568   8.108 -0.1342 -0.2136  0.0409
    1W        W27829   6.444  13.693   1.309  0.1497 -0.5398 -0.1515
    1W        W27830  18.401  15.763   0.130  0.1155  0.0627  0.0477
    1W        W27831   3.527   6.182   6.594  0.2466 -0.0699 -0.1689
    1W        W27832  24.908  19.685   6.669 -0.1814 -0.2126  0.2947
    1W        W27833   2.600  16.568   1.606 -0.0574  0.1515  0.1390
    1W        W27834  10.167  16.244   0.398 -0.0875  0.0597  0.0859
    1W        W27835  10.734  16.735   7.904  0.0979  0.4236  0.0551
    1W        W27836  22.284  17.099   7.570 -0.1126  0.1525 -0.1189
    1W        W27837   5.905   9.983   1.913  0.0981  0.1063 -0.0633
    1W        W27838   9.303   6.971   2.499 -0.0689  0.3071  0.3990
    1W        W27839   6.660  15.226   8.607 -0.2092 -0.3322 -0.1103
    1W        W27840  23.105  25.931   0.126 -0.1117 -0.1316  0.2110
    1W        W27841   3.939  28.915   8.508  0.1283 -0.2809  0.2113
    1W        W27842   0.745   8.129   2.299 -0.0367 -0.1577  0.2067
    1W        W27843  13.392  11.258   0.690 -0.3488  0.1936  0.0450
    1W        W27844   5.134  19.620   8.499  0.0197 -0.2396 -0.3283
    1W        W27845  23.462  22.277   8.526 -0.2035  0.1598  0.0719
    1W        W27846  23.123   5.359   6.582 -0.0416 -0.3301  0.0712
    1W        W27847   3.343  21.232   9.449  0.1730  0.2674 -0.0142
    1W        W27848  20.292   4.825   1.664 -0.1993  0.1570 -0.0333
    1W        W27849   6.355  11.254   7.804  0.2258 -0.2468 -0.0339
    1W        W27850   9.646  28.405   7.099 -0.2982 -0.1571  0.1735
    1W        W27851  25.251   3.760   0.245 -0.2474 -0.1646  0.0191
    1W        W27852   8.486  23.582   6.383  0.0260  0.2762  0.1835
    1W        W27853   7.071   3.658   9.314 -0.1055 -0.1179  0.0355
    1W        W27854   0.517   9.426   7.029 -0.2022  0.1319  0.1403
    1W        W27855  20.035  28.049   8.995 -0.0034  0.2117 -0.3739
    1W        W27856  20.897  10.739   2.637 -0.1334  0.1541 -0.1583
    1W        W27857  23.156  26.492   7.545 -0.0943 -0.0816  0.1986
    1W        W27858  15.982  20.698   0.876  0.1586 -0.2143 -0.0221
    1W        W27859   4.950   9.270   7.246  0.0908 -0.0354  0.1251
    1W        W27860  14.124   8.542   8.427 -0.3016 -0.1875  0.1456
    1W        W27861   2.575  23.639   7.396 -0.3425 -0.2262 -0.0969
    1W        W27862   9.073  25.552   0.705 -0.0656 -0.2709 -0.1517
    1W        W27863   7.166  26.638   8.106 -0.2490 -0.2854  0.0314
    1W        W27864  19.574  22.153   6.445 -0.3470 -0.1721  0.0054
    1W        W27865  10.379  18.422   6.733 -0.2782  0.0585 -0.2320
    1W        W27866  15.562  19.978   9.231 -0.0813  0.3463  0.4131
    1W        W27867  13.634   4.908   9.641 -0.2487 -0.2975 -0.0744
    1W        W27868   9.589  28.290   8.346 -0.1447 -0.2760 -0.2041
    1W        W27869  24.168  25.252   9.383 -0.3299  0.0080  0.2801
    1W        W27870  18.503  10.173   8.994  0.0968  0.0695  0.1092
    1W        W27871   0.915  21.804   6.703 -0.0809 -0.0829 -0.1477
    1W        W27872   9.774   3.995   2.495  0.0346 -0.1249  0.2405
    1W        W27873   2.957  21.472   1.614  0.1777  0.0625  0.0862
    1W        W27874  24.144  13.780   8.327  0.2362  0.1719  0.3515
    1W        W27875  21.848  10.843   8.196  0.1550 -0.1339  0.2180
    1W        W27876  10.842  23.573   6.887  0.1183  0.0598 -0.2650
    1W        W27877  17.281   4.230   0.611  0.1264  0.2003  0.1299
    1W        W27878  25.623  13.956   1.215 -0.0500 -0.1064 -0.0644
    1W        W27879  14.710  26.431   2.703  0.0816 -0.1898  0.1056
    1W        W27880  22.026  28.406   1.106 -0.0073  0.0966 -0.0746
    1W        W27881  24.896  28.368   8.680  0.4109  0.1018  0.4289
    1W        W27882  14.463   2.138   0.076 -0.1345  0.1392 -0.2095
    1W        W27883  15.264   6.830   0.635  0.1839  0.0983  0.1110
    1W        W27884  14.873  14.107   9.076  0.1097  0.1335  0.2326
    1W        W27885  28.612  14.540   8.258  0.2793  0.1196  0.1515
    1W        W27886  21.558  14.904   1.986  0.3529  0.2229 -0.1217
    1W        W27887   0.342  16.690   8.913  0.1034  0.0301 -0.1028
    1W        W27888   7.360  27.727   8.490  0.0139  0.0468 -0.0502
    1W        W27889   8.346   9.639   7.427 -0.1621  0.0468  0.0101
    1W        W27890   4.771  16.272   0.561 -0.1593 -0.2950  0.4147
    1W        W27891  28.581  26.405   9.569 -0.0986  0.0719  0.1771
    1W        W27892  24.129  10.176   7.895  0.1043 -0.3501 -0.2985
    1W        W27893  15.730   3.938   1.173 -0.2348  0.1001 -0.1121
    1W        W27894   2.721   9.382   6.126  0.1196 -0.3114 -0.2054
    1W        W27895   4.613  22.816   8.713 -0.0036 -0.0879 -0.2542
    1W        W27896  17.874  21.207   8.240  0.1838  0.0184 -0.0125
    1W        W27897  18.383  15.503   7.588  0.2716 -0.0856  0.1895
    1W        W27898  18.464  28.060   3.177  0.0954  0.1878  0.3363
    1W        W27899  19.686   2.867   8.055 -0.3625  0.2494  0.0594
    1W        W27900  14.740  13.250   8.503  0.0933  0.2163 -0.0278
    1W        W27901   2.884   9.828   9.590 -0.3748 -0.2684 -0.0530
    1W        W27902  20.861  19.390   9.608  0.4099 -0.2722 -0.1225
    1W        W27903  13.981   3.829   1.350  0.3059 -0.0389 -0.1670
    1W        W27904  16.391  21.932   8.620  0.2770 -0.3754  0.0606
    1W        W27905   2.367  27.071   0.202  0.0037  0.3207  0.2690
    1W        W27906   4.587  14.254   6.365  0.0243 -0.1799 -0.0444
    1W        W27907   9.363   9.094   2.048 -0.2090 -0.1477  0.0874
    1W        W27908   6.296   0.486   0.524  0.2527 -0.0294  0.1209
    1W        W27909  16.807  28.903   2.512 -0.0816 -0.0688 -0.0282
    1W        W27910   6.397  26.854   0.778 -0.3994  0.4965 -0.0957
    1W        W27911   9.166  24.051   7.739  0.1854 -0.0273 -0.1570
    1W        W27912  12.555  13.455   8.214  0.0978 -0.0054 -0.1305
    1W        W27913   8.539   2.042   0.134  0.1009 -0.0713 -0.0554
    1W        W27914  27.495  23.880   9.252 -0.0038 -0.0794 -0.1882
    1W        W27915  10.159  18.027   1.115  0.2607  0.0160  0.0697
    1W        W27916  10.158   8.286   7.193  0.0783  0.4747  0.0772
    1W        W27917  25.662  12.593   6.394 -0.2584  0.3472 -0.1255
    1W        W27918   9.146   5.302   7.796  0.0899 -0.3296  0.0389
    1W        W27919  22.929  20.106   8.088 -0.0062 -0.2214 -0.0424
    1W        W27920   7.959  17.855   0.332  0.0062  0.0432 -0.0531
    1W        W27921  21.094  21.094   6.328 -0.2003  0.1701  0.3302
    1W        W27922  22.045  17.611   7.753  0.4719 -0.2015  0.2973
    1W        W27923  15.910   4.238   0.607 -0.1460  0.2010 -0.0058
    1W        W27924   6.285  19.670   1.060  0.0108  0.0088 -0.1654
    1W        W27925  22.946  15.376   0.090 -0.1055 -0.3590 -0.4285
    1W        W27926  27.430  16.497   6.655 -0.2336 -0.2038 -0.0386
    1W        W27927  18.111  10.360   8.657 -0.0291 -0.1285 -0.0898
    1W        W27928  16.315  15.517   9.600 -0.3931  0.1447 -0.1110
    1W        W27929  25.787  22.684   2.993  0.2574 -0.2571 -0.1597
    1W        W27930   9.066   1.243   1.942  0.1385  0.0935  0.0956
    1W        W27931  24.078   3.418   9.398  0.0917 -0.2600 -0.1280
    1W        W27932   5.034  11.486   8.363  0.0932  0.0740  0.0281
    1W        W27933  21.009  15.369   0.711  0.0629 -0.4253  0.1119
    1W        W27934  10.779  12.962   2.479 -0.0512 -0.1171  0.2416
    1W        W27935   5.492   9.258   7.449 -0.2490 -0.0669 -0.0950
    1W        W27936  22.833  23.666   1.288 -0.2325  0.0268  0.1846
    1W        W27937   1.210  25.220   2.474 -0.2944 -0.3225  0.3123
    1W        W27938  14.890  28.848   9.430 -0.2149  0.1631 -0.4456
    1W        W27939  13.340   1.170   9.196 -0.0392  0.0715  0.2636
    1W        W27940  18.100  23.749   0.452  0.3292 -0.1891  0.0765
    1W        W27941  13.533   0.876   0.936  0.0854 -0.4792  0.0968
    1W        W27942  23.505   6.498   1.444 -0.1075 -0.0142  0.1927
    1W        W27943  24.915   6.790   7.842 -0.1201 -0.0192 -0.0614
    1W        W27944   9.295  10.160   1.107  0.0862 -0.0852  0.2886
    1W        W27945  27.488   6.772   2.122  0.1361 -0.3287  0.1308
    1W        W27946  20.432  25.645   7.111 -0.4519  0.2557  0.1092
    1W        W27947  15.969  13.912   1.982  0.0554 -0.1925  0.1731
    1W        W27948  22.266  22.476   1.756  0.1887  0.1832  0.0970
    1W        W27949   8.503  26.803   8.327  0.1515 -0.1251  0.0321
    1W        W27950  19.819  15.215   0.970  0.1780  0.1689 -0.0175
    1W        W27951   6.472   7.313   0.901  0.0514 -0.0015  0.0510
    1W        W27952  12.437  14.424   9.237 -0.0294 -0.2677 -0.2169
    1W        W27953  20.376  13.176   0.824 -0.0082 -0.0029 -0.1359
    1W        W27954   1.602  13.472   2.143  0.0638  0.2913 -0.2575
    1W        W27955  27.783  24.578   3.306 -0.0532 -0.1563 -0.3878
    1W        W27956   9.205  23.787   8.341 -0.2212  0.5053 -0.0358
    1W        W27957   2.012   1.731   6.433  0.3202 -0.1206  0.2671
    1W        W27958  13.417  27.784   9.054 -0.1180 -0.1707  0.1388
    1W        W27959  19.880  12.619   0.455 -0.0374 -0.2566 -0.1634
    1W        W27960  24.368  11.530   8.149  0.0804  0.0370 -0.2895
    1W        W27961   0.494  27.806   0.306 -0.2208 -0.2320 -0.3304
    1W        W27962  14.338   2.847   1.745 -0.1971 -0.4513  0.2689
    1W        W27963   6.470   5.649   2.771  0.2460  0.2676  0.1004
    1W        W27964   6.705  26.857   8.131  0.2630 -0.2067  0.2090
    1W        W27965  15.038  20.690   1.096  0.1072  0.1970 -0.2758
    1W        W27966   5.157   6.487   0.368 -0.3721 -0.0339 -0.1375
    1W        W27967  28.282  29.133   7.608  0.0927 -0.0963 -0.0674
    1W        W27968   6.657  28.111   6.876  0.0937 -0.1900  0.1394
    1W        W27969  22.635  20.081   1.197 -0.1059 -0.3700  0.0044
    1W        W27970  17.828  17.344   0.363  0.0038  0.2784 -0.0780
    1W        W27971  23.054  20.748   2.805 -0.0855  0.0711 -0.0192
    1W        W27972  26.343   0.237   2.607 -0.0739 -0.0093 -0.1107
    1W        W27973   8.971  16.366   6.949 -0.0186  0.0529  0.3957
    1W        W27974  21.025   7.100   2.304 -0.1121  0.3927 -0.0215
    1W        W27975   3.348  12.690   0.563 -0.1221 -0.1806  0.0448
    1W        W27976  25.825  25.666   0.086  0.1953 -0.0771 -0.1696
    1W        W27977  25.471   0.885   2.195 -0.2511  0.0444 -0.2677
    1W        W27978  15.283  27.883   8.084  0.1417 -0.1019  0.1097
    1W        W27979   8.188  17.848   7.267  0.1112  0.0664  0.0958
    1W        W27980   0.698  24.119   1.718 -0.3512 -0.1429  0.1257
    1W        W27981  16.644  16.930   1.336 -0.0667  0.1209  0.1548
    1W        W27982  15.300   1.372   0.413 -0.1201 -0.1704  0.0879
    1W        W27983  20.122   6.946   8.653 -0.0815 -0.0813  0.0575
    1W        W27984  29.074  24.080   2.462  0.0238 -0.1767 -0.0238
    1W        W27985  24.478  28.231   8.903 -0.1129  0.1242 -0.3106
    1W        W27986  28.854  29.209   1.709 -0.2642 -0.0370 -0.3199
    1W        W27987  10.797  28.493   9.569 -0.0199 -0.2437 -0.0665
    1W        W27988   1.016   8.388   1.858  0.0735 -0.0664 -0.2019
    1W        W27989  14.229  23.100   2.090 -0.0775  0.0790  0.1148
    1W        W27990   3.408   1.699   2.739 -0.1074  0.0439 -0.1212
    1W        W27991  23.733   9.316   0.648 -0.1149 -0.0757  0.0929
    1W        W27992  26.468   7.472   2.148  0.1203  0.0297  0.1294
    1W        W27993  27.053  20.749   1.472 -0.1262 -0.1831  0.2386
    1W        W27994  27.728  24.639   1.346 -0.0650 -0.1741  0.1511
    1W        W27995   1.493  24.988   7.408  0.0650  0.2062  0.2393
    1W        W27996   6.280  23.079   2.385  0.1837 -0.0754 -0.3389
    1W        W27997   6.032   3.962   3.318  0.1071 -0.2891 -0.1725
    1W        W27998   5.755  18.647   9.470  0.1354 -0.1420 -0.0961
    1W        W27999  17.974   3.849   0.152 -0.2079  0.0881  0.1784
    1W        W28000   7.497  27.260   2.842 -0.2933  0.1605 -0.0882
    1W        W28001  12.713  20.232   8.694  0.0445  0.1183  0.0715
    1W        W28002  10.668  17.199   1.842  0.0028  0.0052  0.0895
    1W        W28003  13.285  24.230   7.231  0.0805 -0.0146  0.0543
    1W        W28004  11.258  12.576   1.175 -0.2143 -0.0032  0.0754
    1W        W28005   0.054  13.668   8.321 -0.0356  0.1842 -0.0062
    1W        W28006   8.712   2.984   9.058 -0.1063  0.1548  0.1683
    1W        W28007  12.944  25.752   9.072  0.2342 -0.0680 -0.1297
    1W        W28008  28.664  12.584   9.072  0.0848  0.2652  0.3242
    1W        W28009   3.523   8.614   0.849 -0.0299 -0.0421  0.1896
    1W        W28010  18.816   4.452   2.558 -0.1630  0.0205  0.0075
    1W        W28011  22.513  28.754   8.520 -0.0408  0.0410 -0.1799
    1W        W28012  21.832   3.395   8.923 -0.4193 -0.0816 -0.3740
    1W        W28013  26.931  23.343   6.220  0.0893  0.0600  0.2061
    1W        W28014  19.352   3.242   1.412  0.0998 -0.0125  0.2031
    1W        W28015   2.997  21.187   0.121  0.1526 -0.1572 -0.0138
    1W        W28016   0.781   6.563   0.175  0.3985  0.1281 -0.1524
    1W        W28017   7.428  19.916   2.209  0.2150  0.1538 -0.0132
    1W        W28018  12.738   8.172   9.063 -0.0313  0.3783 -0.2484
    1W        W28019  20.348  25.062   7.657 -0.2533  0.1470 -0.4524
    1W        W28020  18.452   1.194   7.646 -0.0009 -0.0432 -0.1393
    1W        W28021  16.992  22.034   9.493 -0.2146  0.1944 -0.0951
    1W        W28022   1.896  29.292   9.074 -0.0861 -0.0091 -0.3837
    1W        W28023   5.810  18.737   1.142  0.1263  0.0388 -0.0842
    1W        W28024  22.215   3.476   7.209  0.2827  0.1246 -0.0423
    1W        W28025  19.623   8.676   8.951  0.2930  0.2887 -0.0476
    1W        W28026  14.398  19.656   0.120  0.0166 -0.0419 -0.3294
    1W        W28027   6.911   2.011   7.822  0.1895  0.0842 -0.1602
    1W        W28028   4.785   4.548   7.803 -0.3442  0.3092 -0.0067
    1W        W28029  28.562  21.281   8.781 -0.1468  0.0008  0.3367
    1W        W28030  16.326   1.252   0.042 -0.1974 -0.1099  0.2662
    1W        W28031   2.168  16.943   0.210  0.0380  0.1925 -0.2191
    1W        W28032  26.482   0.991   0.633 -0.2294  0.0752  0.0100
    1W        W28033  28.630  11.656   2.248  0.0486  0.1822  0.3313
    1W        W28034  10.032  26.758   9.477 -0.0540  0.2335  0.0234
    1W        W28035  20.246  24.240   0.345  0.0663  0.0938 -0.2497
    1W        W28036   7.870  11.570   8.366 -0.0908  0.2318  0.3039
    1W        W28037  29.224  23.416   0.447 -0.1300  0.0079  0.3368
    1W        W28038  17.949   2.662   1.578 -0.1510  0.1276 -0.1221
    1W        W28039  22.565  28.952   2.050  0.2416 -0.1531 -0.0936
    1W        W28040  22.270  14.616   0.269 -0.3440  0.2065  0.0315
    1W        W28041   2.600  25.785   7.638  0.0405  0.1784 -0.3836
    1W        W28042  13.507   8.216   0.181  0.0754  0.2127  0.0726
    1W        W28043   6.820  17.980   7.644 -0.1238  0.0524 -0.1619
    1W        W28044  17.518  26.329   1.541  0.1555  0.1757 -0.0373
    1W        W28045  24.827   9.712   6.078 -0.0611  0.0229 -0.1380
    1W        W28046  13.576  21.796   1.891 -0.1729 -0.2147  0.0629
    1W        W28047  25.496   4.090   9.059  0.0665 -0.0379 -0.2209
    1W        W28048  20.511   3.927   9.214 -0.0852 -0.1816  0.0943
    1W        W28049  10.857   5.305   3.469 -0.0612 -0.0988 -0.0180
    1W        W28050  16.793  17.583   1.297 -0.0349 -0.2230 -0.2164
    1W        W28051   4.840  22.681   7.183  0.1141 -0.2088  0.2076
    1W        W28052  13.351  20.200   9.500  0.0348  0.0306  0.1436
    1W        W28053   0.858  20.786   1.180 -0.1822  0.1938 -0.1342
    1W        W28054  11.759  15.713   1.781  0.1220  0.0159 -0.0674
    1W        W28055   3.468   5.567   0.486  0.1656 -0.2758 -0.2975
    1W        W28056   5.096   9.604   9.405 -0.1860 -0.0904 -0.2335
    1W        W28057   5.543  17.075   0.028  0.0291  0.0749  0.0761
    1W        W28058   2.748  16.860   7.386  0.3770 -0.2073 -0.1754
    1W        W28059  19.697  25.195   1.372  0.2355 -0.1000  0.1766
    1W        W28060   4.398   1.165   1.667 -0.0627 -0.2294  0.0861
    1W        W28061  13.201  20.882   6.912 -0.0545  0.4594  0.1171
    1W        W28062   5.734   1.933   0.826  0.1680  0.1543  0.1393
    1W        W28063  11.781  15.807   0.669 -0.1050  0.1593  0.0132
    1W        W28064   3.104   6.521   7.397 -0.1345  0.1495 -0.0886
    1W        W28065  12.181  16.879   6.778 -0.2325 -0.1552  0.0646
    1W        W28066  22.951   2.150   2.962  0.0120  0.4022  0.5776
    1W        W28067   2.959  16.043   1.075  0.0403 -0.1112  0.0723
    1W        W28068   1.640   6.258   7.824 -0.3389  0.0241 -0.2686
    1W        W28069  12.996  23.865   8.319  0.1713  0.0428  0.0387
    1W        W28070  23.622  20.044   2.012 -0.2285 -0.0034 -0.2455
    1W        W28071  22.874  22.837   1.351 -0.0270  0.1804  0.1489
    1W        W28072   1.791   3.673   0.121  0.0799  0.0041 -0.2054
    1W        W28073  12.898  16.223   6.985  0.0090  0.0819 -0.1786
    1W        W28074  22.872  16.512   1.047 -0.1169  0.2293 -0.3181
    1W        W28075  14.047   4.875   0.380  0.1288  0.1053 -0.1653
    1W        W28076  22.109  10.638   8.617  0.4938 -0.3705 -0.2462
    1W        W28077   4.437  19.279   0.777  0.2506  0.2767 -0.0674
    1W        W28078  28.361  20.900   6.386  0.0495 -0.2853  0.1249
    1W        W28079  28.951  28.953   9.653 -0.0157 -0.2814 -0.3509
    1W        W28080  10.447   5.585   8.118 -0.0637 -0.2384 -0.2758
    1W        W28081   1.629  10.794   2.085 -0.2818  0.0246 -0.3220
    1W        W28082   7.606  14.835   9.124  0.0942 -0.3419 -0.0308
    1W        W28083  23.752  17.807   9.160 -0.0278 -0.0696  0.1893
    1W        W28084  12.658  17.992   8.920 -0.1193 -0.0329  0.2217
    1W        W28085   8.998   1.382   0.159  0.1292  0.2064 -0.0123
    1W        W28086   3.961  17.556   6.771  0.0940 -0.4103 -0.2425
    1W        W28087  23.865  24.896   6.730 -0.0529 -0.0486 -0.2600
    1W        W28088  14.534  26.480   1.837  0.2773  0.0492 -0.1029
    1W        W28089  14.873  25.688   8.117  0.0547  0.2192 -0.0504
    1W        W28090  20.319   7.902   0.596  0.0186 -0.0313 -0.2942
    1W        W28091   1.919   9.399   6.344 -0.2904 -0.1740 -0.0220
    1W        W28092  17.793   5.723   2.029  0.2138  0.2704  0.2428
    1W        W28093  12.434  24.455   1.966  0.2608 -0.1534  0.3494
    1W        W28094   1.442  24.676   8.215  0.1190  0.2044 -0.0938
    1W        W28095  19.320   0.688   7.625  0.2453 -0.0228 -0.1366
    1W        W28096  24.884  14.084   2.030 -0.1564 -0.0610  0.0390
    1W        W28097  11.462  23.707   3.300  0.0398 -0.0813  0.0735
    1W        W28098  10.862  20.150   1.736 -0.0273  0.0119 -0.1343
    1W        W28099   1.308   1.822   0.955 -0.3145  0.1928 -0.1855
    1W        W28100  28.206  18.246   7.178 -0.1209  0.4207  0.2959
    1W        W28101  22.300  27.913   7.310  0.1624  0.2944 -0.2102
    1W        W28102   4.602  16.250   7.829 -0.5520 -0.0630  0.0821
    1W        W28103  18.218  19.416   7.777  0.3203  0.1134 -0.0921
    1W        W28104  20.222   3.048   7.761 -0.1369  0.0187  0.1056
    1W        W28105  27.194  25.030   2.419  0.0645  0.0712 -0.0283
    1W        W28106  18.981  25.732   1.889 -0.2625 -0.0012  0.2332
    1W        W28107   1.298   3.949   6.298 -0.1435  0.3901  0.2147
    1W        W28108  11.152  21.659   8.901 -0.0180 -0.0152  0.2859
    1W        W28109   6.413   9.335   8.483 -0.1777  0.2856  0.2244
    1W        W28110   6.630   0.685   2.267  0.1012  0.3138 -0.0374
    1W        W28111  18.162   6.887   8.870 -0.0319 -0.0022  0.0953
    1W        W28112  17.444  24.903   7.429  0.1459 -0.0681 -0.2713
    1W        W28113  11.658   3.209   2.870 -0.0540 -0.0145  0.2865
    1W        W28114  29.170  22.475   1.380  0.0093 -0.0404 -0.0489
    1W        W28115  22.240  10.356   0.344 -0.0152 -0.1644  0.4032
    1W        W28116   6.322   3.602   3.199 -0.0904  0.1832  0.2195
    1W        W28117   5.865  27.590   1.401 -0.2401 -0.0291  0.1577
    1W        W28118  13.075   1.501   0.428 -0.2596 -0.1014  0.4470
    1W        W28119  15.989  10.157   2.110 -0.2461  0.3955 -0.0302
    1W        W28120  22.907  28.205   1.224  0.1725 -0.1364 -0.1661
    1W        W28121  11.140  17.520   1.888  0.1229 -0.0564 -0.1198
    1W        W28122   2.969   7.083   7.589 -0.1980 -0.0560  0.0838
    1W        W28123  24.116  17.638   1.201 -0.0173 -0.0944  0.0603
    1W        W28124  13.817  27.667   9.314  0.2158  0.1299  0.0759
    1W        W28125  27.138   8.016   1.702  0.0436 -0.1223 -0.1052
    1W        W28126  15.340  18.922   1.145  0.0447 -0.0305 -0.0763
    1W        W28127  26.494  29.225   2.259 -0.1626 -0.1431 -0.0287
    1W        W28128   5.381  20.607   7.703 -0.2679  0.0439  0.0684
    1W        W28129  10.968  24.049   7.815 -0.0584 -0.1684  0.2535
    1W        W28130  10.345   8.777   3.317 -0.1136 -0.2252 -0.0170
    1W        W28131   4.243   2.172   0.369  0.1450  0.1655  0.0226
    1W        W28132  11.245  24.325   6.930  0.1397 -0.1087 -0.2178
    1W        W28133   0.900  25.295   8.527  0.1867  0.1171 -0.3756
    1W        W28134  20.217   3.896   1.665  0.1604  0.1998 -0.2882
    1W        W28135  14.953  13.517   7.650 -0.1155  0.3429 -0.0045
    1W        W28136  27.015  15.295   8.967 -0.0169  0.2375  0.1620
    1W        W28137  20.505   3.047   1.318 -0.0475  0.1276  0.2118
    1W        W28138   9.776  18.347   0.874 -0.1875  0.0931 -0.0639
    1W        W28139   1.493   0.732   1.399 -0.2076  0.3156  0.0078
    1W        W28140  19.912   3.480   3.105  0.2247  0.1637  0.0652
    1W        W28141  17.222  10.364   7.771 -0.1780  0.1947  0.1962
    1W        W28142  26.465  24.470   2.211 -0.0186  0.1180  0.2029
    1W        W28143  19.371  27.659   2.681 -0.0362  0.2017  0.1435
    1W        W28144   2.183  27.125   7.806 -0.1505 -0.0001  0.0648
    1W        W28145  14.052  14.654   8.057 -0.1803 -0.1629 -0.0210
    1W        W28146   7.335  28.007   0.654  0.2003 -0.0217 -0.1951
    1W        W28147  14.525   6.797   9.285 -0.0949  0.2319  0.1214
    1W        W28148  14.671  12.802   0.610  0.2149  0.2817  0.1246
    1W        W28149  21.243  23.655   7.043 -0.0334  0.0547 -0.0721
    1W        W28150   9.030  14.845   7.393  0.1172 -0.1696 -0.3009
    1W        W28151  13.205  13.122   1.418  0.1524 -0.0212 -0.2435
    1W        W28152  23.405   0.037   8.771 -0.0510 -0.1655 -0.1357
    1W        W28153  13.875  19.241   0.433 -0.1514 -0.3396  0.3590
    1W        W28154  18.141  11.554   7.443  0.2067 -0.1905  0.3553
    1W        W28155  26.586   9.675   0.131 -0.4351 -0.0894 -0.0925
    1W        W28156  19.204  22.944   8.819 -0.0668  0.3110 -0.2570
    1W        W28157  25.151  14.859   0.948 -0.0238  0.0557  0.2568
    1W        W28158  17.702   4.336   9.076  0.2490  0.2332  0.2043
    1W        W28159  10.004  12.083   8.358  0.0992 -0.0484  0.0448
    1W        W28160  13.204  25.240   8.053 -0.0594 -0.0049  0.1369
    1W        W28161  28.761  28.688   8.986 -0.3260 -0.0281 -0.0916
    1W        W28162  14.400  14.732   1.907 -0.0649  0.0085  0.0317
    1W        W28163  11.785  27.906   0.886  0.3687  0.0692  0.1226
    1W        W28164  27.406  11.292   0.969 -0.1880 -0.0921  0.1373
    1W        W28165  24.054  24.025   6.995  0.3129 -0.0893 -0.0685
    1W        W28166   4.767   5.089   7.977 -0.0980 -0.1694  0.2147
    1W        W28167  14.053  16.948   1.863 -0.1953  0.1062 -0.2532
    1W        W28168  12.998  22.904   9.084  0.0940  0.2696 -0.2060
    1W        W28169   9.914  16.931   9.611  0.0788 -0.1269  0.0233
    1W        W28170  17.902   5.368   8.961  0.3588 -0.1732  0.5351
    1W        W28171  17.032  28.504   0.411 -0.1041 -0.1827  0.1617
    1W        W28172  20.151  14.643   1.946  0.1615  0.1315 -0.1372
    1W        W28173   1.452  10.330   0.300  0.2037  0.0191  0.0364
    1W        W28174  27.887   9.236   6.912 -0.3542  0.0669 -0.0565
    1W        W28175   3.165  23.462   8.993 -0.1705 -0.1180 -0.2086
    1W        W28176   4.560   0.257   7.679  0.0712  0.0746 -0.0609
    1W        W28177  23.940   1.935   2.927  0.1247 -0.3137 -0.0806
    1W        W28178   2.563  22.219   1.949  0.2157 -0.2117 -0.1587
    1W        W28179   0.532  13.355   7.330  0.0949  0.0239  0.0777
    1W        W28180  28.913   0.600   6.234 -0.2091 -0.0945 -0.1061
    1W        W28181  28.138  19.154   0.612  0.1255 -0.1887  0.1421
    1W        W28182  12.753  13.220   9.198 -0.1759 -0.2784 -0.1434
    1W        W28183  19.083  15.480   7.986 -0.1654 -0.0688  0.4444
    1W        W28184  14.669  20.882   0.848  0.0912  0.1719 -0.1472
    1W        W28185   2.834   0.333   2.068  0.6089 -0.1305 -0.0409
    1W        W28186  10.677  19.130   1.656  0.3955  0.0930  0.2061
    1W        W28187  18.986  19.931   7.862  0.1000  0.3178 -0.1835
    1W        W28188   7.834  19.428   1.064 -0.0307 -0.1234  0.1511
    1W        W28189  19.597  26.107   1.614 -0.0812 -0.1820  0.2826
    1W        W28190  17.806   9.329   7.391  0.1118 -0.1154  0.0584
    1W        W28191   7.347  27.525   9.448 -0.0390 -0.1580 -0.0445
    1W        W28192  25.980  24.406   8.320 -0.1417 -0.1725 -0.3147
    1W        W28193   8.022   0.158   2.297 -0.1877  0.0175 -0.1099
    1W        W28194  28.164  28.826   1.895  0.2201  0.1780  0.0049
    1W        W28195   6.469   9.905   6.731  0.1446  0.0562  0.1132
    1W        W28196  19.972  16.450   0.302  0.0082  0.0759  0.1221
    1W        W28197  29.125  10.538   0.250 -0.5001 -0.2676 -0.1220
    1W        W28198  11.213  11.852   0.152 -0.2240  0.0513 -0.1757
    1W        W28199   6.441  19.764   1.526  0.1545 -0.1408 -0.1359
    1W        W28200   9.710  25.309   8.573 -0.2002 -0.2872 -0.2155
    1W        W28201  17.807  12.645   7.488  0.0904  0.1508 -0.4103
    1W        W28202  27.691   2.110   2.996  0.0909 -0.0439 -0.1666
    1W        W28203   4.397  16.346   9.603 -0.0693 -0.0683  0.0164
    1W        W28204  16.035  24.483   0.167  0.0884  0.1613 -0.0022
    1W        W28205   0.446  28.896   7.422  0.2006  0.3078 -0.1290
    1W        W28206  20.795   6.848   1.230 -0.2256  0.1204 -0.2343
    1W        W28207  27.617  18.895   1.078  0.3147  0.0831  0.0787
    1W        W28208  13.545   3.671   2.689  0.1756 -0.2730 -0.0507
    1W        W28209  20.690   4.000   0.447 -0.1474  0.0533  0.1184
    1W        W28210   4.184  19.249   6.999 -0.0024 -0.0186  0.0894
    1W        W28211   6.237   5.501   1.683  0.2848 -0.3098 -0.0919
    1W        W28212   1.400  26.699   9.068  0.0930  0.1308 -0.1872
    1W        W28213  16.420  17.799   2.038 -0.0248  0.0256  0.0742
    1W        W28214   7.927   1.658   9.369 -0.0804  0.1307 -0.0340
    1W        W28215  11.025  24.560   7.797 -0.3816  0.1926  0.0242
    1W        W28216   4.078   2.371   5.939  0.0168  0.2351  0.2207
    1W        W28217  23.075   6.835   6.965  0.2006  0.0898  0.2788
    1W        W28218   7.431   7.295   6.985  0.3905  0.5440  0.2735
    1W        W28219  12.676  13.997   1.787  0.0233  0.1441  0.0147
    1W        W28220   8.498  26.411   1.822 -0.0479 -0.1196  0.1251
    1W        W28221  18.723   8.496   8.844  0.0437 -0.0932  0.0748
    1W        W28222  16.144  13.956   0.169 -0.0065  0.2596 -0.1611
    1W        W28223  21.811  25.967   2.719  0.0169  0.0349  0.1746
    1W        W28224  24.222  27.200   0.598  0.1674  0.1867 -0.0969
    1W        W28225  13.150  20.690   9.463  0.3095 -0.0456  0.0842
    1W        W28226   1.120   4.136   2.417  0.1782  0.3277  0.0880
    1W        W28227  28.154  26.183   7.784 -0.2699 -0.2209  0.3553
    1W        W28228   6.911   7.591   0.980 -0.0193  0.2695 -0.1447
    1W        W28229  16.850  23.580   6.826  0.1019 -0.0509 -0.1708
    1W        W28230  16.389  24.925   8.065  0.0978 -0.0184  0.1628
    1W        W28231  24.588   2.682   2.329  0.0328  0.1164 -0.0858
    1W        W28232  24.206   9.384   0.850  0.2183  0.0815  0.0503
    1W        W28233  19.876  10.121   9.632 -0.0120 -0.1839  0.0693
    1W        W28234   3.205  10.466   6.137  0.1224 -0.2719 -0.2449
    1W        W28235   9.657  25.400   0.578  0.2779  0.0362 -0.3532
    1W        W28236   7.012  15.257   9.327 -0.1595  0.3663 -0.2428
    1W        W28237  18.987   5.204   9.147  0.0171  0.0276 -0.0133
    1W        W28238  26.535  16.946   7.090 -0.1015  0.0113 -0.3855
    1W        W28239   2.668   1.243   2.333 -0.0556  0.1264  0.0575
    1W        W28240   6.599  28.185   7.358  0.3337 -0.0620  0.2434
    1W        W28241   6.637  13.336   1.000 -0.0560 -0.1074  0.0634
    1W        W28242  23.718  12.625   6.893  0.2186 -0.0318  0.0306
    1W        W28243   6.917  18.508   8.618  0.1770  0.0874  0.0640
    1W        W28244   9.331   7.084   7.905 -0.2382 -0.1288 -0.0811
    1W        W28245  19.928   5.520   1.009 -0.1281  0.2434  0.0022
    1W        W28246  28.345  20.019   7.740 -0.0692  0.0849  0.0823
    1W        W28247  12.834  14.754   1.971 -0.0708  0.1261  0.1538
    1W        W28248  15.340  13.143   9.149 -0.1801 -0.1821  0.0625
    1W        W28249  28.483  20.308   1.292  0.0527  0.1013 -0.1939
    1W        W28250  13.442  21.314   8.062  0.2122 -0.0508 -0.0758
    1W        W28251   0.018  21.324   9.253 -0.2417 -0.0630 -0.0465
    1W        W28252  13.896  27.261   2.702  0.1215 -0.2307 -0.2516
    1W        W28253   8.654   9.205   6.558 -0.1170 -0.2376 -0.2225
    1W        W28254  28.917  12.295   0.732  0.0277  0.1027  0.1882
    1W        W28255   7.334   6.985   0.935 -0.2430  0.0369  0.1602
    1W        W28256  25.832   3.194   0.806  0.2452 -0.0136 -0.0644
    1W        W28257  18.305  26.287   0.540  0.0261  0.2877  0.1381
    1W        W28258  21.567  24.863   3.014 -0.1237 -0.2557 -0.0275
    1W        W28259  16.645   9.116   9.335 -0.0546  0.0368 -0.3555
    1W        W28260  10.225  25.278   2.167 -0.2357 -0.1812  0.0855
    1W        W28261  29.329   6.410   7.808  0.1676 -0.0266  0.3616
    1W        W28262   6.708  27.958   8.370 -0.0788  0.1551 -0.2018
    1W        W28263  28.409   2.479   3.259 -0.1476  0.0590 -0.0866
    1W        W28264  28.315  17.442   1.874 -0.0623 -0.2453  0.2415
    1W        W28265  26.680   0.802   1.116  0.2367  0.1338  0.0841
    1W        W28266  20.107  28.881   1.504  0.0478 -0.1232  0.1779
    1W        W28267  26.013  27.747   1.038 -0.3085 -0.2089  0.3074
    1W        W28268  25.613  15.339   8.985 -0.0324  0.1969 -0.1539
    1W        W28269  17.218   6.296   3.039 -0.1705 -0.0125  0.3172
    1W        W28270  27.186   9.396   9.680 -0.2574 -0.1782 -0.2858
    1W        W28271   2.132  28.462   8.246  0.0708 -0.1545  0.0035
    1W        W28272  28.736  22.027   1.648 -0.1289 -0.0705  0.1121
    1W        W28273   2.058   7.946   1.009 -0.1934 -0.1424  0.0494
    1W        W28274   7.843  24.649   9.020 -0.3265  0.4547 -0.2334
    1W        W28275  16.351  20.650   1.752 -0.5016  0.1529 -0.0899
    1W        W28276  28.921  19.491   1.125 -0.1497  0.3589  0.0284
    1W        W28277  27.051   9.464   7.481  0.1618  0.2759  0.0088
    1W        W28278  20.638   5.629   8.543  0.0260 -0.0073  0.1105
    1W        W28279  10.428  18.367   7.235 -0.0078  0.3689  0.1613
    1W        W28280  22.432  16.007   0.284 -0.3073  0.2436 -0.0318
    1W        W28281  10.626  17.054   0.309  0.0856  0.1983 -0.1290
    1W        W28282  21.956  12.924   7.433  0.1852 -0.1852  0.1849
    1W        W28283  19.236   0.232   7.763 -0.1156 -0.0953  0.1057
    1W        W28284  22.630  18.547   2.948 -0.1248 -0.2041  0.0420
    1W        W28285   1.379  21.338   8.386 -0.0315 -0.3892  0.0494
    1W        W28286  20.166  27.977   7.921 -0.1617  0.0889  0.0792
    1W        W28287  27.005  10.447   7.326  0.0740 -0.0359 -0.1985
    1W        W28288  14.684  20.174   2.487 -0.1588  0.0227 -0.1003
    1W        W28289   9.625  27.863   0.593  0.3207  0.1610 -0.0479
    1W        W28290   1.869  25.332   6.588  0.1349  0.1469  0.0185
    1W        W28291   7.373  26.531   3.470  0.0196  0.0983 -0.0915
    1W        W28292   4.770  25.042   1.818 -0.2545  0.0110  0.0426
    1W        W28293  18.940  17.562   1.874  0.1053 -0.2838 -0.0230
    1W        W28294  22.680  17.770   1.512 -0.0631  0.0621  0.2182
    1W        W28295   8.081   1.871   0.150 -0.0411  0.0418  0.1714
    1W        W28296   8.269   8.210   6.840  0.3637  0.1457  0.2006
    1W        W28297   9.822   7.224   3.141  0.0771 -0.1984 -0.0756
    1W        W28298   6.127  18.570   6.887 -0.0491 -0.0443  0.1069
    1W        W28299  18.299   8.552   8.647  0.3347 -0.2056  0.1102
    1W        W28300  21.583  15.312   7.203 -0.1375  0.1799 -0.1151
    1W        W28301  20.463  11.104   1.480 -0.2302  0.0308  0.2544
    1W        W28302  17.362  26.616   2.495  0.0208  0.1487 -0.1776
    1W        W28303  21.631   4.064   7.774 -0.1463  0.3587 -0.0159
    1W        W28304  28.223  25.393   8.831 -0.0940  0.1479  0.0348
    1W        W28305  19.687  15.303   2.533 -0.4266  0.1092 -0.1167
    1W        W28306  10.857  20.137   6.421 -0.1512 -0.0192 -0.0341
    1W        W28307  27.510   7.562   2.743  0.1159 -0.0658  0.2843
    1W        W28308   4.225   5.980   1.958 -0.2667  0.4729 -0.1807
    1W        W28309   3.844  11.733   1.252  0.3292 -0.0196  0.2859
    1W        W28310  23.428  28.712   3.131  0.2378 -0.1934 -0.0566
    1W        W28311  26.410  10.589   9.040 -0.1824  0.2804 -0.3056
    1W        W28312   8.054   6.675   2.768  0.1268  0.1887  0.3286
    1W        W28313  15.725   5.955   9.290 -0.0807  0.0051  0.2468
    1W        W28314   8.721  10.491   2.357 -0.1253 -0.1244 -0.1482
    1W        W28315  19.151  22.552   8.517  0.0070  0.1636 -0.1019
    1W        W28316   8.428  11.207   9.298  0.1699 -0.0639  0.3378
    1W        W28317  29.175  25.263   7.560 -0.2094 -0.0011 -0.0311
    1W        W28318   3.279   5.783   8.740  0.2659 -0.0134  0.2720
    1W        W28319  23.565  17.517   9.572 -0.1675 -0.0119 -0.0450
    1W        W28320  18.280   9.678   9.556  0.0567 -0.0748 -0.1541
    1W        W28321  29.340  12.467   3.039 -0.0602 -0.0727  0.0349
    1W        W28322  21.965  26.036   2.243  0.2226  0.3423  0.1284
    1W        W28323  12.637  25.649   8.660 -0.1227 -0.1514  0.1691
    1W        W28324  27.558  20.455   9.507  0.1829  0.1541  0.1974
    1W        W28325  13.851  20.019   1.676  0.0195  0.4262 -0.1104
    1W        W28326  20.617  18.394   7.628 -0.1135 -0.2176 -0.2757
    1W        W28327   3.970  21.064   6.285  0.0176  0.0278  0.2127
    1W        W28328  22.108  19.905   3.037 -0.1072 -0.2641 -0.0188
    1W        W28329  27.778  25.793   7.952  0.4439 -0.4205  0.0072
    1W        W28330  12.578   6.750   8.492  0.2118 -0.0974  0.1487
    1W        W28331  21.293  27.990   9.354 -0.0267  0.5313 -0.2045
    1W        W28332   2.320  18.963   6.815 -0.0409  0.0126  0.0067
    1W        W28333  26.481  27.348   8.152 -0.2978  0.1930 -0.2567
    1W        W28334  11.225  17.411   0.397  0.1853  0.0324  0.0711
    1W        W28335   9.915  28.170   0.292  0.1557 -0.1612 -0.2035
    1W        W28336   8.354  19.221   6.798 -0.0819 -0.3432  0.0029
    1W        W28337   0.144   7.864   9.295  0.1101  0.1232  0.0369
    1W        W28338   6.387  25.008   9.126 -0.0791  0.2878  0.2215
    1W        W28339   0.456  10.888   8.351  0.3356  0.1286 -0.0420
    1W        W28340   3.822   6.594   7.824  0.1131 -0.3217  0.2479
    1W        W28341   9.143  11.298   2.028  0.0633 -0.0722  0.2572
    1W        W28342   2.283  25.387   7.344  0.0509  0.0697 -0.1749
    1W        W28343   7.031   4.701   7.580  0.1820  0.1052 -0.1196
    1W        W28344  12.051  22.208   7.904  0.2653 -0.2411 -0.2333
    1W        W28345   6.670  21.367   9.413  0.3246 -0.0549  0.0184
    1W        W28346  26.618  15.767   7.728  0.0017  0.3026  0.0552
    1W        W28347   6.713  19.946   7.558 -0.0645  0.4372 -0.1463
    1W        W28348   2.944   6.691   6.910  0.2440 -0.0460 -0.3063
    1W        W28349   8.688   1.562   1.603 -0.2231  0.0362 -0.1089
    1W        W28350  26.161  15.131   0.854  0.0082  0.2211 -0.2726
    1W        W28351  26.188  18.880   2.387  0.2072  0.1503 -0.1664
    1W        W28352  19.145   2.106   7.401 -0.0403  0.1081  0.0470
    1W        W28353  20.978   4.987   8.134  0.0028 -0.2119 -0.0573
    1W        W28354  25.430  26.979   0.724  0.1694 -0.1570 -0.0922
    1W        W28355  16.402  23.620   1.308 -0.0005 -0.2534 -0.1839
    1W        W28356   1.042   0.530   7.025  0.1820 -0.2888  0.3487
    1W        W28357  15.693  19.517   8.245  0.2268 -0.0887  0.2458
    1W        W28358   7.880  23.466   7.865 -0.2431 -0.0682  0.2310
    1W        W28359  22.061  13.224   2.928  0.2121 -0.1705  0.0507
    1W        W28360  24.061  22.644   8.649  0.0632  0.0777  0.0689
    1W        W28361  24.903  18.340   8.307  0.0533 -0.1322  0.0726
    1W        W28362  18.708  12.474   1.637 -0.0090  0.0846 -0.0091
    1W        W28363  19.177  24.981   2.716 -0.1179  0.4020  0.1212
    1W        W28364   6.920  14.261   9.420 -0.0763  0.1656  0.2829
    1W        W28365   1.547   2.446   2.237  0.0126  0.0610 -0.0452
    1W        W28366   5.732  15.248   6.285  0.2716 -0.0899 -0.1127
    1W        W28367   9.646   1.514   1.861  0.2507  0.0893 -0.2707
    1W        W28368  15.671  12.747   7.023  0.1818 -0.1752 -0.0478
    1W        W28369  16.448   8.885   8.922  0.1226  0.0037 -0.1059
    1W        W28370  20.297  14.264   2.209 -0.0745 -0.1159 -0.2473
    1W        W28371  12.486   0.932   1.243  0.0470 -0.1260 -0.2434
    1W        W28372  26.552   4.933   0.600 -0.0648  0.0257 -0.0265
    1W        W28373  20.387  13.599   0.475 -0.2581  0.1562  0.3350
    1W        W28374  13.522   4.605   0.518 -0.1020 -0.0519 -0.0945
    1W        W28375  14.524  24.821   9.569 -0.0496  0.3664 -0.5382
    1W        W28376   1.529  11.110   7.288 -0.1548 -0.0527  0.0997
    1W        W28377   0.702  13.646   8.817  0.2129  0.1981  0.0067
    1W        W28378  14.311  13.375   2.438 -0.1302 -0.3239  0.4159
    1W        W28379  26.237   5.346   7.300 -0.3121  0.3258  0.0077
    1W        W28380   7.211  23.495   9.103  0.3080  0.1548  0.3337
    1W        W28381   6.697  20.640   0.913  0.1149  0.2774 -0.2353
    1W        W28382   9.482  12.094   8.349 -0.1529  0.1393  0.4117
    1W        W28383   2.072   5.810   5.618 -0.0370  0.0138  0.1826
    1W        W28384  26.616   9.452   1.885  0.4943 -0.1098 -0.5233
    1W        W28385   1.404  24.266   2.630 -0.0744  0.2597  0.0988
    1W        W28386   3.197   6.559   8.674  0.1435  0.0703  0.1952
    1W        W28387   6.831  24.299   6.672 -0.0668 -0.2013 -0.2812
    1W        W28388   5.259   3.284   9.029 -0.2548  0.1284  0.0492
    1W        W28389  11.959   7.861   2.116 -0.2412  0.2855 -0.0807
    1W        W28390   2.864   7.420   9.322 -0.5100 -0.0667  0.0323
    1W        W28391   2.966  15.765   9.565  0.0021 -0.0587  0.0431
    1W        W28392  11.044  20.062   8.576 -0.0969 -0.2021 -0.0445
    1W        W28393   7.086  25.161   0.796  0.0257 -0.0801 -0.0007
    1W        W28394  24.828   1.656   1.893 -0.0549  0.1341  0.1253
    1W        W28395   6.149   1.428   7.765  0.0107  0.0076  0.1060
    1W        W28396  27.380  19.353   7.927 -0.0399 -0.0367 -0.1902
    1W        W28397  17.292  14.766   7.256 -0.2604  0.0150 -0.2367
    1W        W28398  24.947  14.980   6.682 -0.0612 -0.0794 -0.3671
    1W        W28399  22.946  18.074   1.807  0.0440 -0.0865  0.0838
    1W        W28400  14.345   1.697   2.150 -0.0363  0.2245 -0.1771
    1W        W28401  22.776  24.434   7.284  0.1442  0.0378  0.2555
    1W        W28402  14.460   2.435   8.138  0.4874 -0.0656  0.1151
    1W        W28403  24.156   1.321   2.404 -0.3691  0.2706 -0.2511
    1W        W28404  19.875  15.515   7.151  0.0110  0.3258  0.0598
    1W        W28405   5.481  24.852   8.750 -0.1034  0.2003 -0.0825
    1W        W28406   9.434  11.294   7.067 -0.1303 -0.0611  0.0168
    1W        W28407  11.358  28.075   3.388  0.0005  0.1966  0.2432
    1W        W28408  29.005   4.952   0.397  0.0649 -0.1614 -0.1732
    1W        W28409  11.252   6.751   1.127  0.0901 -0.1046  0.1015
    1W        W28410   7.926  22.118   1.261 -0.1108  0.3000 -0.1484
    1W        W28411   1.283  18.043   7.969 -0.2506 -0.0370  0.1309
    1W        W28412  28.391   2.824   7.724  0.1186 -0.2104 -0.5214
    1W        W28413   7.572  22.541   2.082 -0.0645 -0.1124  0.1562
    1W        W28414   5.528  26.919   0.522 -0.0540 -0.1071 -0.1825
    1W        W28415  17.688   5.123   8.543 -0.0121  0.1478 -0.1448
    1W        W28416  22.025   3.648   8.479  0.2862  0.1772 -0.0335
    1W        W28417   1.348  12.632   8.456  0.4399 -0.0218 -0.0673
    1W        W28418   1.954   4.534   0.446 -0.1043 -0.1169 -0.1565
    1W        W28419   8.950   3.973   7.596 -0.0512 -0.0501 -0.2200
    1W        W28420   6.003  15.730   7.981  0.0463  0.0083 -0.2590
    1W        W28421  23.641  27.601   1.616  0.2000  0.1962  0.1319
    1W        W28422   9.067  20.241   7.386 -0.0119 -0.0136  0.0741
    1W        W28423   3.878  28.396   1.959  0.1304 -0.1341 -0.0982
    1W        W28424   2.313   8.470   1.623 -0.0578 -0.1296 -0.3684
    1W        W28425  28.224   9.858   7.510 -0.1704  0.0410  0.1872
    1W        W28426  23.848   8.960   6.815  0.2557 -0.1905 -0.0063
    1W        W28427  28.907  21.194   0.026  0.2100  0.3328  0.1240
    1W        W28428   0.483  11.214   8.761  0.0437  0.5182  0.1399
    1W        W28429   1.636   9.963   1.083 -0.0619  0.3077 -0.0172
    1W        W28430  25.259  23.885   6.762  0.1071  0.0141 -0.0329
    1W        W28431  22.490  12.332   8.160  0.1430  0.0013 -0.1620
    1W        W28432   1.336  21.981   6.957 -0.0107 -0.0932  0.0297
    1W        W28433   4.510  25.170   0.454 -0.1702 -0.0730  0.1074
    1W        W28434   0.093   5.109   5.681 -0.2117 -0.1811  0.1590
    1W        W28435  13.248   9.742   8.435 -0.1263 -0.1809  0.1347
    1W        W28436   4.124  21.678   6.287 -0.0327 -0.2305 -0.0716
    1W        W28437  13.481  14.784   9.233 -0.0778  0.0002  0.0410
    1W        W28438  17.741  20.324   9.502 -0.2170 -0.3284 -0.3014
    1W        W28439  29.348  12.677   6.814 -0.3824  0.1142 -0.0770
    1W        W28440   8.849  12.188   9.271 -0.0869  0.0351  0.0983
    1W        W28441   9.327  27.389   0.341 -0.0916  0.1909  0.3100
    1W        W28442  11.775  28.763   2.745 -0.0500  0.1952 -0.1514
    1W        W28443   0.925  10.805   8.091  0.0737  0.1199 -0.3395
    1W        W28444  15.995   3.223   9.084  0.0071  0.0822  0.0307
    1W        W28445  22.058  15.791   1.880 -0.2495 -0.0208  0.2317
    1W        W28446  26.035   4.344   1.732 -0.0372 -0.0825  0.3264
    1W        W28447  19.494  27.239   9.230 -0.0507 -0.1550  0.1657
    1W        W28448  21.828  22.618   3.437 -0.2038  0.0768 -0.1450
    1W        W28449  20.106  23.949   8.832  0.1496 -0.0106  0.0744
    1W        W28450  10.923   4.432   8.606 -0.0565 -0.0676  0.0702
    1W        W28451   1.089  24.432   9.029  0.0606 -0.1836 -0.2086
    1W        W28452  15.405  27.835   1.311  0.0975  0.0963 -0.0996
    1W        W28453   2.885   5.897   2.140 -0.1149 -0.0697 -0.0711
    1W        W28454   7.755  20.661   7.137  0.0263  0.2010 -0.0938
    1W        W28455  15.305  22.788   1.607 -0.0864 -0.0529 -0.1926
    1W        W28456  25.214  12.158   1.627 -0.2066  0.1268  0.1261
    1W        W28457  15.755   3.688   7.889  0.3131 -0.0977 -0.3314
    1W        W28458  14.724   2.654   7.682  0.2271  0.1398  0.1925
    1W        W28459  25.459  18.076   9.071  0.0818 -0.0427 -0.2447
    1W        W28460  27.654   1.634   0.911 -0.0107 -0.1052 -0.2022
    1W        W28461   5.628   9.346   7.936 -0.0836 -0.1948  0.0246
    1W        W28462  28.428   6.976   9.625 -0.1057  0.2725  0.0716
    1W        W28463   8.948   7.795   8.318  0.0796 -0.0412 -0.0037
    1W        W28464   7.030  19.457   6.809 -0.2318 -0.0373  0.2079
    1W        W28465   2.392   7.869   2.270 -0.1083  0.1968  0.1560
    1W        W28466  15.244  26.184   7.618  0.0625  0.3734  0.2431
    1W        W28467  24.084  11.971   1.035 -0.0742  0.4255  0.0581
    1W        W28468   4.215  12.125   1.127 -0.0453 -0.0442 -0.2398
    1W        W28469   5.708   2.396   9.100  0.1094  0.1311 -0.0820
    1W        W28470   8.334   1.278   1.311 -0.0866  0.0852 -0.1873
    1W        W28471  22.840  28.591   7.301 -0.0200  0.0079 -0.2660
    1W        W28472  21.821   0.300   6.899 -0.0870 -0.1467  0.1908
    1W        W28473   3.151  28.908   8.253 -0.1625  0.3487  0.0464
    1W        W28474  24.303  24.097   1.691  0.1037 -0.4316 -0.1581
    1W        W28475   6.723   3.288   7.187  0.0764 -0.1799  0.0057
    1W        W28476  22.613  16.982   6.998  0.0466 -0.0366 -0.4480
    1W        W28477   8.581  19.158   1.921  0.0753  0.3548 -0.0236
    1W        W28478  15.941   4.403   0.111  0.2983 -0.2366  0.1079
    1W        W28479  19.835   8.855   1.436  0.0315  0.0639 -0.0398
    1W        W28480  15.328  25.805   2.345 -0.2091  0.0774 -0.0959
    1W        W28481   6.418  23.755   1.642  0.1084 -0.0369  0.2550
    1W        W28482  14.981  11.755   7.701  0.0808  0.0232 -0.0956
    1W        W28483   9.578  13.151   0.313 -0.1352 -0.2296  0.0232
    1W        W28484  26.920  25.363   7.154 -0.2653 -0.0003 -0.0952
    1W        W28485  26.999  27.494   2.232 -0.0983  0.5258 -0.0187
    1W        W28486  29.238  27.541   7.889  0.1739  0.3533  0.2497
    1W        W28487   7.778  11.133   2.048  0.0258  0.1024 -0.0672
    1W        W28488   9.174   7.042   7.040 -0.2558  0.1168 -0.3056
    1W        W28489   2.862  26.481   1.215 -0.2634 -0.1537  0.0433
    1W        W28490   4.143  11.682   6.953  0.2073 -0.2481  0.0295
    1W        W28491   6.224   8.079   5.899 -0.0654  0.0731 -0.1253
    1W        W28492   6.118   5.935   8.128 -0.3368 -0.1873 -0.3102
    1W        W28493  18.416  14.299   0.391 -0.2365  0.1616  0.2648
    1W        W28494  13.361  16.560   9.371 -0.0134 -0.0651 -0.3595
    1W        W28495  20.418  21.582   8.393 -0.2943  0.1717  0.1566
    1W        W28496  27.520  16.918   8.316 -0.0455  0.0545  0.1093
    1W        W28497  14.062   2.898   3.846  0.2224  0.1734 -0.0843
    1W        W28498   6.770  12.804   1.263 -0.0165  0.3078  0.0746
    1W        W28499  26.361   4.773   7.104  0.0901 -0.1048  0.2185
    1W        W28500   2.563  25.638   2.266  0.2330 -0.2345  0.1112
    1W        W28501  28.270  16.876   5.794  0.0236 -0.1561  0.3275
    1W        W28502  22.349  17.422   7.186 -0.0974  0.1794 -0.0047
    1W        W28503  17.260  23.950   7.526  0.0330 -0.0971 -0.0138
    1W        W28504   8.982  10.322   1.524  0.1175 -0.1705  0.2693
    1W        W28505  17.455   3.728   0.605 -0.1615  0.1579  0.0291
    1W        W28506  13.342   0.059   8.594  0.0961 -0.2612 -0.3206
    1W        W28507  24.800   7.174   1.380  0.1585 -0.0770 -0.0298
    1W        W28508  17.360  10.526   9.160  0.0820 -0.0130 -0.1998
    1W        W28509  26.993   4.422   6.657 -0.1217 -0.0807  0.2791
    1W        W28510   8.668   3.659   2.520  0.2318  0.2087  0.1702
    1W        W28511  20.163  10.442   1.260 -0.2106 -0.1523 -0.2118
    1W        W28512  17.827  12.201   9.559 -0.0238  0.1974  0.1765
    1W        W28513  16.186  12.324   7.841  0.1284 -0.0007 -0.1838
    1W        W28514  28.575   1.068   2.502  0.0212  0.0548 -0.4138
    1W        W28515   0.179  17.506   1.036 -0.2913 -0.1614  0.1226
    1W        W28516  21.172  14.864   9.284 -0.0916 -0.2092  0.1987
    1W        W28517  12.578   7.138   0.482  0.1620  0.1055 -0.0079
    1W        W28518   4.084  10.057   7.863  0.2732  0.0678  0.0798
    1W        W28519   1.743  25.754   7.323 -0.3008  0.0983 -0.2123
    1W        W28520  18.150  29.197   8.710 -0.0350  0.5184 -0.2064
    1W        W28521   2.383  24.245   0.754  0.3002 -0.4931 -0.0563
    1W        W28522  29.044  10.895   9.508 -0.1804 -0.1938 -0.3841
    1W        W28523  14.619   1.315   2.027 -0.0768  0.0483 -0.0140
    1W        W28524  14.100  12.034   8.038 -0.2069  0.1782  0.0566
    1W        W28525  29.182  24.406   0.769  0.0308  0.0471  0.0141
    1W        W28526   5.126  29.345   7.676  0.2669  0.1764 -0.0512
    1W        W28527  13.527  20.578   1.558 -0.0089 -0.0100 -0.0711
    1W        W28528  21.428  21.299   2.064  0.2893  0.0196 -0.0615
    1W        W28529  17.719  21.176   1.343 -0.0280 -0.1937 -0.6615
    1W        W28530   3.580  22.706   7.152 -0.2180  0.0140 -0.0448
    1W        W28531   9.892  27.933   2.611 -0.0143 -0.1176  0.2327
    1W        W28532   4.023   6.367   1.024 -0.0916  0.2574  0.0382
    1W        W28533  11.262   9.483   0.583  0.0907  0.6196 -0.1212
    1W        W28534  11.526  24.025   9.665 -0.1112  0.3959 -0.1577
    1W        W28535  15.558  28.025   3.362 -0.1207 -0.2853 -0.1783
    1W        W28536   4.308   3.763   9.663  0.4639 -0.1763 -0.0033
    1W        W28537  12.510  13.538   2.006 -0.0613  0.1118  0.0025
    1W        W28538  24.762   3.779   6.205  0.1003 -0.0153 -0.1650
    1W        W28539   1.598  20.350   0.040  0.1301 -0.3838 -0.0188
    1W        W28540   9.735   0.766   8.659 -0.0082 -0.4250 -0.0100
    1W        W28541   1.811  14.227   8.329 -0.1343 -0.2153 -0.0397
    1W        W28542  25.213  15.896   6.370 -0.0163 -0.0533 -0.1167
    1W        W28543  20.135  14.236   9.258  0.0667 -0.1672  0.2132
    1W        W28544  14.806   9.373   8.226 -0.1019  0.0707  0.0750
    1W        W28545   8.987   3.616   0.337  0.1598  0.1883 -0.2888
    1W        W28546   4.585  11.563   7.178 -0.1095 -0.3556 -0.4594
    1W        W28547  12.567  15.233   8.179 -0.0213 -0.0826  0.2546
    1W        W28548   3.416   2.777   2.214  0.3126 -0.1182 -0.1260
    1W        W28549  22.615  15.629   1.028 -0.2048  0.1479  0.3585
    1W        W28550  23.985  17.067   8.570 -0.1757 -0.1013 -0.0282
    1W        W28551   0.786   9.880   0.402  0.1056  0.1878 -0.3050
    1W        W28552  16.513  12.266   1.115  0.2011 -0.0136 -0.0693
    1W        W28553   7.680  23.266   9.377 -0.1389 -0.0244 -0.1027
    1W        W28554   9.815   5.066   7.758 -0.0583  0.0414 -0.1579
    1W        W28555  17.662   4.867   7.586 -0.1313 -0.1087  0.0077
    1W        W28556  28.085  15.567   8.257  0.0215  0.1298 -0.0420
    1W        W28557  11.029  20.668   0.677  0.0841  0.1092  0.0866
    1W        W28558  17.017  20.803   6.735 -0.0252 -0.2014  0.1967
    1W        W28559  17.929   2.708   3.311  0.1872 -0.1793  0.4149
    1W        W28560  12.782  26.832   8.351  0.0693  0.1221  0.0737
    1W        W28561   5.251  18.776   8.077 -0.1074 -0.1323  0.2265
    1W        W28562   8.196   9.499   8.599  0.3332 -0.0566 -0.2262
    1W        W28563  27.001  28.566   0.290 -0.0855 -0.2291 -0.0437
    1W        W28564  27.693   6.771   1.557  0.0699  0.0978 -0.0737
    1W        W28565   3.959   1.563   9.544 -0.1517  0.0981 -0.1599
    1W        W28566  27.108   6.205   6.650  0.1292 -0.3234  0.2006
    1W        W28567   4.581   2.226   8.492 -0.1602  0.2448  0.1716
    1W        W28568  17.808  18.368   0.511  0.0075  0.0035  0.1981
    1W        W28569   6.943  24.582   1.713  0.1673  0.0410 -0.2983
    1W        W28570   8.547  13.053   1.191  0.0724  0.2081 -0.1753
    1W        W28571  19.527  25.461   9.405 -0.0208 -0.5468  0.0415
    1W        W28572  12.051   1.308   0.054 -0.0515  0.0519  0.5697
    1W        W28573   3.812   0.484   2.512  0.1389 -0.3285  0.0321
    1W        W28574  11.944  12.656   2.041 -0.1780  0.0728 -0.1561
    1W        W28575   4.147  21.453   7.690  0.1142  0.0696  0.1401
    1W        W28576   4.200  24.037   2.244 -0.2201  0.0629  0.2181
    1W        W28577   3.287  23.392   7.961  0.1395  0.2170 -0.1719
    1W        W28578   7.883   4.082   8.862  0.1278  0.0433 -0.0418
    1W        W28579   7.092   5.191   8.356  0.0969  0.1392 -0.1064
    1W        W28580   9.086  27.816   0.455 -0.1466 -0.1631 -0.0470
    1W        W28581  18.255  15.163   7.964 -0.2838  0.3804 -0.1684
    1W        W28582  28.823  13.015   2.263 -0.1677 -0.0609  0.1653
    1W        W28583  24.006   2.165   2.025  0.1991 -0.1829 -0.1915
    1W        W28584   2.645  25.758   7.150 -0.0094  0.2140  0.0970
    1W        W28585  20.348  24.381   9.097  0.0542 -0.1376  0.2110
    1W        W28586  26.924  20.407   8.830 -0.0173  0.1231 -0.0084
    1W        W28587  21.630  19.231   0.133 -0.1143  0.0440 -0.0494
    1W        W28588  13.407  15.257   0.355 -0.1284 -0.0494  0.0634
    1W        W28589  28.619  13.122   0.187  0.3563 -0.1341 -0.2690
    1W        W28590   5.375  11.442   6.910 -0.0360 -0.2723  0.1457
    1W        W28591   7.000  18.180   6.431 -0.0144  0.0598 -0.1797
    1W        W28592   3.632   4.410   9.149 -0.0409 -0.0669  0.0634
    1W        W28593  23.136  10.032   6.529  0.2043 -0.1549  0.0474
    1W        W28594   6.014   8.997   8.393  0.1068  0.0078 -0.1413
    1W        W28595  13.852   6.303   3.039 -0.0980  0.0769  0.2311
    1W        W28596  27.509  22.240   9.509  0.0691  0.1144 -0.1534
    1W        W28597   3.737  19.042   2.407 -0.2740  0.1163 -0.1403
    1W        W28598  17.869  20.141   2.102 -0.1776 -0.1916 -0.0413
    1W        W28599   2.048  18.201   1.241 -0.1729  0.1268 -0.2766
    1W        W28600  13.546  23.681   2.172 -0.0207  0.2583  0.0078
    1W        W28601  24.779  20.526   2.196 -0.0234  0.2219 -0.0908
    1W        W28602  23.674  13.587   1.336  0.0858  0.1033  0.0403
    1W        W28603  18.932  10.257   2.673 -0.3741 -0.0618  0.1563
    1W        W28604  27.760   0.966   0.227  0.3064  0.1183 -0.0549
    1W        W28605   3.798  12.190   7.957  0.2437  0.1715  0.0073
    1W        W28606  16.749  21.901   7.611 -0.4627  0.0290 -0.0441
    1W        W28607  19.593  25.041   8.105 -0.1590  0.0288 -0.3106
    1W        W28608  10.651  18.366   0.739 -0.3187 -0.1169 -0.2665
    1W        W28609  11.891   5.773   1.788 -0.0598  0.2860  0.2144
    1W        W28610  21.384   3.019   2.672  0.1474 -0.0027 -0.0641
    1W        W28611   3.218  17.483   7.958  0.0119  0.0419  0.2175
    1W        W28612   8.744  27.867   9.198 -0.0344 -0.4489 -0.1146
    1W        W28613  22.729  24.449   1.958  0.5001 -0.6277 -0.0375
    1W        W28614  19.081  28.214   0.336  0.0211  0.1073 -0.0884
    1W        W28615  23.072  24.855   1.670  0.1628 -0.0994  0.1307
    1W        W28616  19.440  23.965   7.603  0.0214  0.1609 -0.1494
    1W        W28617  16.255  21.960   9.127 -0.0380  0.2001  0.0065
    1W        W28618  12.627  10.764   9.186  0.3997  0.1459  0.2653
    1W        W28619   1.652   0.039   8.138  0.1221  0.2479 -0.0617
    1W        W28620   7.083   0.604   8.559  0.1666  0.2472  0.1198
    1W        W28621  23.326  28.856   7.297 -0.3841  0.1223 -0.1088
    1W        W28622  19.405  24.230   8.059 -0.1004  0.3682  0.3513
    1W        W28623  16.834   2.947   1.516 -0.2127  0.1113 -0.1641
    1W        W28624  23.489  18.730   1.943  0.0263 -0.0255  0.0385
    1W        W28625   7.561  12.646   2.031  0.1390 -0.1586 -0.2799
    1W        W28626   8.053  16.069   9.583  0.1180 -0.3676  0.2924
    1W        W28627   0.408  20.200   8.641  0.0209 -0.1390 -0.0363
    1W        W28628  21.115  15.810   0.078  0.0747 -0.1491 -0.2690
    1W        W28629  28.739  12.912   0.638 -0.2006  0.2421  0.1521
    1W        W28630  24.544  22.774   0.197  0.0183  0.0167 -0.2523
    1W        W28631  26.590  28.808   0.063  0.1738  0.0703 -0.4000
    1W        W28632   4.117  28.043   7.767 -0.1187 -0.1099 -0.1534
    1W        W28633  12.152   1.760   2.931  0.0339 -0.1523  0.0235
    1W        W28634  19.105  18.247   1.155 -0.0926 -0.2451 -0.1117
    1W        W28635  26.831  21.116   0.171 -0.2524  0.1715  0.2428
    1W        W28636   0.609  17.576   5.517 -0.0108 -0.0212 -0.2021
    1W        W28637   8.212  17.466   6.955 -0.3333  0.0866 -0.0714
    1W        W28638   6.169   6.129   1.211 -0.1624 -0.1439 -0.0434
    1W        W28639  12.884   3.286   9.084 -0.0830  0.0821  0.0018
    1W        W28640  22.381   4.073   1.447  0.1036  0.0934  0.2741
    1W        W28641  13.119  24.069   3.059  0.0434  0.0849  0.0457
    1W        W28642   9.900  21.468   7.526  0.1103 -0.0749 -0.1644
    1W        W28643   9.607   6.610   1.089 -0.0081 -0.1334 -0.0571
    1W        W28644  11.402  26.947   0.834 -0.0273  0.1879 -0.1283
    1W        W28645  11.769  20.826   1.336  0.1252 -0.1128 -0.0602
    1W        W28646   0.132   3.068   9.656  0.0845 -0.2844 -0.0595
    1W        W28647   4.071   1.196   0.223  0.0445 -0.2567 -0.1720
    1W        W28648  13.309   1.439   8.408 -0.0159 -0.3065  0.1184
    1W        W28649   2.186  20.855   7.854 -0.1058  0.0372  0.0095
    1W        W28650  20.870  25.056   0.228  0.1404  0.1355  0.0610
    1W        W28651  10.665  12.967   7.601  0.2349 -0.1634  0.1368
    1W        W28652  16.951  22.135   1.658  0.0853 -0.2912  0.0397
    1W        W28653  14.837  20.535   9.592  0.0722 -0.1132 -0.0481
    1W        W28654  19.609   4.207   0.584 -0.1037 -0.2666  0.0783
    1W        W28655   4.281  22.069   7.751 -0.1922  0.0509 -0.1689
    1W        W28656   4.944  27.675   0.734 -0.2498 -0.1614  0.1711
    1W        W28657  20.910  12.758   7.088 -0.3779 -0.0100 -0.0536
    1W        W28658   4.760  11.711   0.287 -0.0312  0.0414  0.1273
    1W        W28659  18.990   0.405   7.086 -0.0599 -0.0751  0.0196
    1W        W28660  27.790  28.446   0.398 -0.1945  0.0836 -0.0009
    1W        W28661  19.698   8.035   2.848 -0.0327  0.0888 -0.0667
    1W        W28662   4.640  24.246   8.671 -0.1862  0.0507  0.1009
    1W        W28663   1.671  16.034   6.497  0.3017 -0.1252  0.2436
    1W        W28664   0.705  27.665   3.035  0.3809  0.0730 -0.0241
    1W        W28665   5.723  19.102   1.508  0.2966  0.2128 -0.1846
    1W        W28666  13.896  18.154   7.653 -0.1097  0.0828  0.3224
    1W        W28667   5.832   0.876   2.085  0.0515  0.0552  0.0026
    1W        W28668  22.524   5.271   7.882  0.2668  0.2632  0.0549
    1W        W28669  27.266   6.976   7.361  0.0143  0.0227 -0.2180
    1W        W28670  25.820  23.792   7.729  0.0803  0.1729  0.0834
    1W        W28671  13.339  14.762   1.923  0.1106 -0.2739  0.3782
    1W        W28672   7.146  17.724   6.575 -0.1387  0.2644 -0.3290
    1W        W28673   8.855  13.145   8.697 -0.1856  0.0596 -0.0449
    1W        W28674  26.721  22.501   0.269 -0.0467 -0.0715  0.2798
    1W        W28675   6.315  26.690   6.677  0.0837 -0.1702 -0.3373
    1W        W28676  26.990  16.123   1.445 -0.0304 -0.0758 -0.1252
    1W        W28677  15.853   4.831   9.488 -0.1142  0.0482  0.1327
    1W        W28678   7.889   1.907   2.649  0.1093  0.0069 -0.0433
    1W        W28679  27.700   5.578   9.553  0.0459 -0.0970  0.0059
    1W        W28680   8.054   3.251   8.437 -0.1621  0.0034 -0.0404
    1W        W28681  10.224  12.581   8.774 -0.1254 -0.1065 -0.2262
    1W        W28682  21.171  10.075   2.126 -0.0521 -0.2301  0.2370
    1W        W28683   7.651  14.878   2.013  0.0762  0.0156 -0.1336
    1W        W28684   9.078   1.626   2.492 -0.0999  0.1840  0.0326
    1W        W28685  11.669  27.833   7.709  0.2667 -0.0820  0.0290
    1W        W28686  11.515  14.146   8.129  0.0837 -0.0246 -0.0762
    1W        W28687  24.767  24.911   7.103 -0.0366 -0.0092  0.0196
    1W        W28688  24.367  11.036   6.658 -0.1754  0.2841  0.0068
    1W        W28689  14.479   8.671   2.723 -0.0486  0.2556  0.0322
    1W        W28690  12.423   7.886   0.914 -0.4098  0.2428 -0.0214
    1W        W28691  14.633  13.882   7.804  0.1267  0.2329 -0.1489
    1W        W28692  24.001  11.460   1.747 -0.1112 -0.0471  0.2379
    1W        W28693   5.673   3.186   8.684 -0.1705  0.1528  0.0445
    1W        W28694  24.375  28.853   8.066  0.0932 -0.3587 -0.2257
    1W        W28695  28.130   0.332   1.750 -0.0888  0.0833 -0.2130
    1W        W28696   4.336  13.459   6.894 -0.2506 -0.0921 -0.1638
    1W        W28697  28.834   4.867   1.411  0.0591 -0.0266 -0.2151
    1W        W28698  12.879  25.266   1.499  0.2952 -0.1156  0.0984
    1W        W28699  22.342  28.758   1.550 -0.0429 -0.0532 -0.0149
    1W        W28700   7.414   7.646   2.009 -0.3080  0.3506 -0.0172
    1W        W28701   0.222   2.126   6.151  0.0696 -0.2388 -0.0225
    1W        W28702   5.497  13.401   7.865  0.0330  0.3442 -0.3692
    1W        W28703   3.558  13.204   7.943  0.0512  0.0114  0.0568
    1W        W28704  13.783  19.910   8.047  0.0550 -0.0463 -0.0802
    1W        W28705   4.466   8.114   1.099  0.3326 -0.1104 -0.2161
    1W        W28706  23.105  28.728   8.078  0.1780  0.0981 -0.3546
    1W        W28707  26.642   2.247   8.277 -0.0146 -0.1785  0.0350
    1W        W28708   3.172  25.522   6.204 -0.2331  0.1362  0.1444
    1W        W28709  13.052  10.841   8.896 -0.1609  0.1078  0.0311
    1W        W28710  28.807  21.354   8.060  0.1691  0.0389 -0.0726
    1W        W28711   2.933  22.548   1.965 -0.0083 -0.0854 -0.0886
    1W        W28712  16.167  21.105   8.915 -0.0943 -0.1851  0.1377
    1W        W28713  10.488  23.826   9.441 -0.1296 -0.3998 -0.0418
    1W        W28714  25.999   9.172   1.189  0.0936  0.1582  0.0644
    1W        W28715   2.795  14.385   7.912  0.1117 -0.0015 -0.1123
    1W        W28716   3.576   7.608   9.626  0.2287  0.0823 -0.1500
    1W        W28717  27.343  20.339   0.769 -0.2848  0.0971  0.1444
    1W        W28718  18.208  15.941   7.280 -0.1820  0.1538 -0.2010
    1W        W28719  14.087  22.543   2.135 -0.1062  0.1988  0.0332
    1W        W28720  26.323   7.741   1.645  0.1505 -0.1856  0.0274
    1W        W28721  19.888  13.056   7.704  0.1907  0.2603  0.0303
    1W        W28722  27.682  18.851   1.564  0.3543  0.0201  0.2769
    1W        W28723   3.058  27.559   1.122 -0.0307 -0.2503  0.1746
    1W        W28724  14.458  17.488   8.056 -0.2994 -0.0220 -0.1735
    1W        W28725  18.138   8.865   0.923  0.0582  0.2746 -0.0793
    1W        W28726  13.513  21.292   2.110  0.2169 -0.1117 -0.1013
    1W        W28727  28.205  20.404   7.062  0.1479 -0.3542  0.1575
    1W        W28728   7.943  11.962   9.198 -0.0994  0.1765  0.1732
    1W        W28729  27.215   1.509   8.674 -0.1056 -0.0892  0.0522
    1W        W28730   9.738  19.904   1.739 -0.1784  0.1434  0.0007
    1W        W28731  12.686   5.906   0.379 -0.0058 -0.0671 -0.2478
    1W        W28732   9.985  26.925   2.029  0.0335 -0.0427 -0.1052
    1W        W28733  11.826  13.229   1.700 -0.0023  0.0063 -0.1057
    1W        W28734  26.028   1.433   7.129 -0.0379  0.0589  0.3953
    1W        W28735   1.858   0.503   1.100 -0.3981 -0.1469  0.0673
    1W        W28736  11.065   4.960   8.583  0.1863 -0.3317  0.1194
    1W        W28737  21.012  21.759   9.539  0.0384 -0.1312 -0.2401
    1W        W28738   0.398  21.956   2.998 -0.1852  0.5333 -0.2151
    1W        W28739  21.336   5.634   7.814 -0.0799  0.0290  0.3037
    1W        W28740  22.287   8.642   2.433 -0.2088  0.1184  0.1843
    1W        W28741   1.973  24.958   2.542  0.1096 -0.0648 -0.0373
    1W        W28742   2.770   2.746   0.500  0.2498  0.2510 -0.2767
    1W        W28743  20.596   6.758   8.647  0.1433  0.0457  0.1091
    1W        W28744  24.457  12.903   7.987  0.2522 -0.0791  0.0545
    1W        W28745   1.677  29.121   1.545  0.0694 -0.2079  0.0208
    1W        W28746  16.462   3.674   7.642 -0.1509 -0.0165 -0.1277
    1W        W28747  16.677   8.379   2.370  0.0594 -0.0964 -0.1511
    1W        W28748  27.534  24.415   0.152 -0.1124  0.3566 -0.0272
    1W        W28749   8.085   9.711   9.225  0.3843  0.2134 -0.0696
    1W        W28750  14.173  10.013   8.805 -0.0844 -0.0768 -0.0327
    1W        W28751   3.506   7.562   2.177  0.1467  0.0248  0.2033
    1W        W28752  17.208  10.682   0.484 -0.1861  0.0594  0.2007
    1W        W28753  16.951  23.055   6.940 -0.4373 -0.0034  0.1864
    1W        W28754  27.490  24.788   9.521  0.1881 -0.3181 -0.1944
    1W        W28755  14.367  28.466   1.566 -0.3222  0.3222 -0.1585
    1W        W28756   6.175   9.317   8.027  0.4222 -0.0202  0.0626
    1W        W28757   2.164  14.635   8.645  0.2723 -0.1348  0.2208
    1W        W28758   2.652   9.019   5.671 -0.0119  0.0564  0.4287
    1W        W28759  13.909  22.634   3.402  0.0479 -0.0803  0.0419
    1W        W28760  15.258  25.299   8.734  0.2507 -0.0061 -0.2383
    1W        W28761  28.330   8.137   8.056  0.3921  0.1311  0.0169
    1W        W28762  19.407  12.407   1.372  0.2066  0.0169  0.0947
    1W        W28763  25.266   7.867   0.205 -0.0311 -0.0348  0.1568
    1W        W28764   3.063   6.225   6.962 -0.0245  0.0144  0.0217
    1W        W28765  21.163  10.438   0.314  0.1841  0.0570 -0.0981
    1W        W28766  15.396   0.015   2.884  0.2026  0.1219  0.0265
    1W        W28767   0.662  15.634   6.618 -0.3424 -0.1492  0.0327
    1W        W28768   3.802   2.049   0.090  0.0107  0.0794  0.0356
    1W        W28769   1.758  20.201   8.286 -0.2298 -0.1911 -0.1231
    1W        W28770   2.224  20.897   0.133 -0.1305 -0.1478 -0.0741
    1W        W28771  20.724  27.746   8.537 -0.1471 -0.1415  0.1517
    1W        W28772  29.161   0.292   3.472 -0.2785  0.2420  0.1772
    1W        W28773   4.556   9.310   7.683  0.0960 -0.1746  0.2098
    1W        W28774  12.203  18.519   1.035 -0.1059 -0.1728  0.1573
    1W        W28775  17.281   2.532   9.454  0.0692 -0.2783  0.1499
    1W        W28776  17.077  11.874   9.493 -0.0370  0.1918  0.0228
    1W        W28777   8.074   5.753   2.839  0.2596  0.3449  0.1531
    1W        W28778  11.169   0.888   2.637  0.0347  0.2469 -0.0764
    1W        W28779   2.330  24.901   9.379 -0.4619 -0.1802 -0.2164
    1W        W28780   0.522  14.962   1.781  0.3319 -0.2490 -0.1128
    1W        W28781  13.315  28.122   3.071  0.0514  0.2756 -0.2689
    1W        W28782  19.967  13.418   0.789  0.3339 -0.0862  0.1856
    1W        W28783   3.496   3.480   6.775 -0.4334 -0.0267 -0.2923
    1W        W28784   4.516  27.296   8.465  0.0484  0.2451  0.1846
    1W        W28785  22.886  13.362   8.843  0.0958 -0.1248 -0.1639
    1W        W28786   7.133  20.940   7.659 -0.0272  0.0999 -0.2064
    1W        W28787   3.023   4.372   6.621  0.4006  0.1563 -0.2030
    1W        W28788   0.012  21.261   0.069  0.0572  0.3483 -0.0754
    1W        W28789  24.036   6.643   2.371 -0.1829  0.2533  0.2770
    1W        W28790   8.126  23.591   9.259  0.5290 -0.1651  0.1908
    1W        W28791   1.195   3.114   8.037 -0.3595  0.1964  0.1962
    1W        W28792  19.486  19.128   9.584  0.0022 -0.1902  0.1253
    1W        W28793  25.848  21.359   9.665 -0.4132  0.2186 -0.1703
    1W        W28794  23.068  23.083   8.418 -0.0325 -0.4023  0.2248
    1W        W28795   1.927  19.977   8.724  0.0337 -0.0844 -0.4110
    1W        W28796   3.672  17.487   2.286  0.1962 -0.1960 -0.1701
    1W        W28797   3.371   5.247   0.021  0.1845 -0.0075 -0.0896
    1W        W28798  26.391   0.516   0.250  0.4093  0.3949 -0.1026
    1W        W28799  13.113  23.859   2.571  0.1786  0.1439  0.0251
    1W        W28800   0.655  19.518   8.667 -0.0246  0.1822 -0.1855
    1W        W28801  24.871  15.741   9.357 -0.2326 -0.0001 -0.2665
    1W        W28802  13.297  24.750   8.046 -0.0346 -0.3187 -0.2128
    1W        W28803   0.923  21.013   1.660  0.0585 -0.2329  0.2573
    1W        W28804  16.025   1.365   1.347 -0.1487  0.0866  0.1625
    1W        W28805   9.932  20.862   1.264 -0.0598  0.0593 -0.2424
    1W        W28806  19.098  16.599   0.921  0.1251 -0.1148  0.1216
    1W        W28807   3.415  15.873   2.633  0.1097  0.2584  0.1727
    1W        W28808   8.109  28.082   1.486 -0.4752  0.2387  0.1907
    1W        W28809  10.059   2.120   3.621 -0.4248 -0.3217  0.3438
    1W        W28810   4.466  17.576   6.682  0.0540 -0.1637  0.1179
    1W        W28811   6.796   9.992   9.135 -0.0143 -0.1707 -0.0097
    1W        W28812  28.014  16.967   1.030 -0.1129  0.1029 -0.0545
    1W        W28813   6.811  18.463   1.264  0.0416 -0.3765 -0.5494
    1W        W28814   3.202  14.076   0.921 -0.1560  0.4766 -0.0944
    1W        W28815   8.559   7.964   0.229  0.2744  0.1684 -0.1384
    1W        W28816  17.735   7.163   0.950 -0.0120  0.0980  0.0329
    1W        W28817  25.537   8.694   9.322  0.2998  0.0108 -0.0246
    1W        W28818  17.297  20.868   0.487 -0.4486 -0.0042 -0.1627
    1W        W28819  27.301   4.006   8.727  0.2841 -0.0020 -0.1429
    1W        W28820   9.221  19.412   9.404  0.1074  0.1064  0.3745
    1W        W28821  17.998   6.829   7.570 -0.0091 -0.0517 -0.4651
    1W        W28822   5.585   6.020   2.615 -0.0796  0.3413 -0.2947
    1W        W28823  25.106  19.258   8.779  0.0231 -0.0786 -0.0712
    1W        W28824  15.105  18.032   9.283 -0.0755 -0.0796  0.3770
    1W        W28825   2.568  14.305   1.726  0.2488 -0.1458  0.2642
    1W        W28826  11.557   8.206   3.031  0.1015 -0.1180 -0.2148
    1W        W28827   9.983   1.940   2.228  0.4089 -0.3682  0.0106
    1W        W28828   7.395   5.344   9.614  0.0191  0.2404  0.1146
    1W        W28829  24.648   7.861   8.512  0.0631  0.0347 -0.1950
    1W        W28830  20.485  11.406   7.202 -0.0166  0.3009  0.0187
    1W        W28831  25.525  16.721   6.704  0.2050  0.0955 -0.0356
    1W        W28832   5.744  10.939   1.908  0.2589 -0.0342  0.0533
    1W        W28833   7.563  24.250   0.714  0.4456 -0.0613 -0.2278
    1W        W28834  14.053  15.532   8.573 -0.0737 -0.1061 -0.0701
    1W        W28835  10.188  28.245   6.924  0.0738  0.2706 -0.0399
    1W        W28836   7.865  17.886   9.095 -0.0704 -0.2602  0.1198
    1W        W28837  10.618  16.637   1.055 -0.2414  0.1009 -0.1924
    1W        W28838  22.748  23.890   8.276  0.0113  0.0042  0.1812
    1W        W28839   3.035  14.023   8.300  0.2478  0.0255 -0.0083
    1W        W28840  11.941  25.774   1.623 -0.1527  0.1674  0.1599
    1W        W28841   0.892  26.014   7.607  0.0926  0.0063  0.1699
    1W        W28842  16.981   4.169   7.535 -0.1857 -0.1012  0.0416
    1W        W28843  23.769   4.844   0.641  0.1952 -0.0843 -0.0819
    1W        W28844  15.402   3.324   0.500 -0.0916  0.0461 -0.1825
    1W        W28845  12.613  25.839   3.024 -0.0351  0.0659 -0.0843
    1W        W28846  15.535  29.306   8.779  0.2143 -0.1489  0.2066
    1W        W28847  18.670  24.838   0.810  0.0333 -0.3242  0.0300
    1W        W28848   3.802   3.918   2.836  0.0728 -0.1439 -0.0984
    1W        W28849   7.630   3.659   2.506  0.0895 -0.1038 -0.2089
    1W        W28850   6.778  25.644   8.565 -0.1245 -0.4764 -0.0193
    1W        W28851   8.900   6.362   1.663 -0.1911 -0.1132 -0.1707
    1W        W28852  26.143  18.753   9.421  0.0020 -0.2301 -0.3875
    1W        W28853  26.978   1.584   1.480 -0.2112  0.2131 -0.0578
    1W        W28854  16.317   4.556   9.380  0.2242  0.0915 -0.0345
    1W        W28855  23.164   2.866   9.277  0.3426  0.2744  0.1558
    1W        W28856  24.048   4.785   7.010 -0.0864 -0.2027  0.0649
    1W        W28857  23.981  24.515   7.017 -0.2646  0.1230  0.0878
    1W        W28858  12.260  29.348   0.102 -0.0691  0.3574 -0.2137
    1W        W28859  12.236   1.253   1.720  0.2834 -0.1036 -0.0106
    1W        W28860  23.945   5.540   1.361  0.0144  0.0722  0.1704
    1W        W28861  28.398  23.041   7.294  0.2967 -0.2113  0.2233
    1W        W28862  24.270  23.163   2.631 -0.0044  0.1178  0.1131
    1W        W28863  27.338  11.316   7.412  0.0220  0.0049  0.0315
    1W        W28864  29.268  21.414   2.181 -0.0118  0.2285  0.0073
    1W        W28865   2.243  25.851   8.068  0.0736 -0.2749  0.0777
    1W        W28866  14.002   8.693   2.498 -0.0919 -0.1032 -0.0385
    1W        W28867   1.041  23.080   7.850  0.1951  0.0705 -0.1186
    1W        W28868   6.477   8.628   7.257 -0.3080 -0.0113 -0.2944
    1W        W28869  24.854  15.970   0.174 -0.2230  0.0823 -0.0927
    1W        W28870  24.331  19.731   2.324  0.2134 -0.0156  0.0311
    1W        W28871   3.412  22.351   1.693 -0.1866  0.2641  0.0103
    1W        W28872  11.105  17.908   6.862  0.1821 -0.0511  0.1638
    1W        W28873   5.082   8.519   2.271 -0.2171 -0.0633 -0.0666
    1W        W28874  12.122   7.652   0.586  0.3043 -0.2492 -0.1872
    1W        W28875   7.053  21.730   9.227  0.0421 -0.0651  0.1111
    1W        W28876  18.003  17.201   1.772 -0.0706  0.1549 -0.0109
    1W        W28877   6.021  11.079   2.422 -0.2796  0.0232  0.1959
    1W        W28878   4.491  19.781   7.788 -0.2104  0.3184  0.1329
    1W        W28879   5.649  26.638   7.333  0.0296  0.0264  0.1844
    1W        W28880  21.076  14.296   8.587  0.2252 -0.3830 -0.2897
    1W        W28881  17.471  11.866   9.183  0.1103  0.0183 -0.0050
    1W        W28882   0.404  20.958   8.455 -0.3736 -0.3421 -0.0955
    1W        W28883  13.084  17.537   0.364 -0.0390  0.0630  0.1714
    1W        W28884  20.420  19.349   7.555 -0.0009 -0.0958 -0.2616
    1W        W28885   5.906  23.724   1.855  0.0893  0.1866 -0.0629
    1W        W28886  16.235  28.254   1.429  0.1812 -0.1456  0.1748
    1W        W28887  25.744  15.734   9.285 -0.0586  0.0795 -0.3113
    1W        W28888   3.995  20.760   7.300 -0.0259 -0.0810  0.0123
    1W        W28889  18.145  18.020   1.995  0.1584 -0.3129  0.2141
    1W        W28890   3.399  23.131   6.888 -0.2899  0.2057 -0.1976
    1W        W28891   0.078   2.665   1.775  0.4425  0.2807 -0.1699
    1W        W28892  20.645  23.456   7.727 -0.1371 -0.2452  0.2372
    1W        W28893  24.416   7.976   1.117  0.0551 -0.1327 -0.1121
    1W        W28894  11.392   2.681   3.532 -0.1137 -0.0474  0.2795
    1W        W28895  24.890   6.891   8.385 -0.1338  0.1032 -0.0442
    1W        W28896  12.728  10.890   1.763 -0.0325 -0.1643 -0.0240
    1W        W28897  14.951  22.275   7.369 -0.1893 -0.0019 -0.2022
    1W        W28898   0.643  19.104   6.064  0.0828  0.2420 -0.0856
    1W        W28899  13.028   3.900   8.435 -0.0143 -0.0868  0.1647
    1W        W28900  18.518   2.218   0.138  0.2388 -0.1216  0.0444
    1W        W28901  19.397  15.805   2.510  0.0130 -0.0644  0.0173
    1W        W28902   7.605  14.721   7.437 -0.0401  0.0102  0.1117
    1W        W28903  17.578  24.346   7.717 -0.0344 -0.2456 -0.2118
    1W        W28904  10.422  15.517   8.298  0.0804 -0.2177  0.2056
    1W        W28905   8.979  24.576   7.761  0.0583  0.3536 -0.1251
    1W        W28906  11.184  19.065   1.416  0.0839 -0.0981 -0.1653
    1W        W28907  15.494   3.603   1.963 -0.1742  0.0983  0.0531
    1W        W28908  19.024  11.995   8.333  0.0239  0.0484  0.0778
    1W        W28909  14.037   1.634   3.424  0.0857 -0.0474  0.3927
    1W        W28910  16.430  26.827   3.346  0.0565 -0.2289 -0.0694
    1W        W28911  15.448  13.597   7.941  0.2720 -0.0718  0.0254
    1W        W28912   6.519  10.941   0.851  0.4893 -0.2285  0.1743
    1W        W28913   9.254   5.024   8.661 -0.0658  0.5883 -0.0379
    1W        W28914   8.895   9.981   0.830 -0.0706  0.0063 -0.2713
    1W        W28915   3.359  24.989   6.867 -0.1921  0.2620  0.2249
    1W        W28916  21.972  22.309   2.458 -0.1726  0.1573 -0.0902
    1W        W28917  23.586  20.024   9.094 -0.1835  0.1576 -0.0322
    1W        W28918  27.297   7.966   0.730 -0.2188  0.0020 -0.0977
    1W        W28919  16.816  27.209   2.594  0.2371  0.0005 -0.1515
    1W        W28920  18.726  16.165   0.315 -0.1650  0.1064  0.0968
    1W        W28921   1.679  13.847   6.088 -0.1209 -0.1035  0.1081
    1W        W28922  26.852  22.728   7.033  0.1487 -0.2942  0.1924
    1W        W28923   9.677   2.571   9.481 -0.0463  0.3043 -0.2352
    1W        W28924  20.204  16.086   0.057 -0.0991 -0.1152  0.0470
    1W        W28925  17.707   0.785   3.106  0.1304  0.1301 -0.0761
    1W        W28926  12.497   2.999   9.234 -0.0616 -0.0801  0.3028
    1W        W28927  26.153  20.274   2.486  0.1895 -0.0468 -0.0086
    1W        W28928  28.450   2.987   6.590  0.1273 -0.0345 -0.0663
    1W        W28929  13.474  25.010   0.769  0.0260  0.0590 -0.2699
    1W        W28930  11.023   5.474   1.487 -0.1101  0.0297  0.0478
    1W        W28931  11.173   6.706   8.251  0.0622 -0.1873  0.1030
    1W        W28932  17.190  21.831   6.748  0.1801 -0.1553  0.1358
    1W        W28933  16.743  16.066   0.423 -0.0301 -0.0136  0.2768
    1W        W28934   8.927   0.481   1.293 -0.1010 -0.2728 -0.2350
    1W        W28935  15.567  28.323   3.784  0.0156 -0.1587  0.1735
    1W        W28936  24.312   2.704   6.717 -0.1235  0.0372 -0.0120
    1W        W28937  15.928  20.809   7.684  0.0749 -0.3083 -0.0398
    1W        W28938  23.376   0.084   6.200 -0.0172 -0.1572  0.0423
    1W        W28939  15.504  24.459   0.759 -0.1476  0.1377  0.0297
    1W        W28940   0.547   0.443   7.053 -0.1668 -0.1498 -0.0617
    1W        W28941  24.555   5.481   7.524 -0.1496  0.0591  0.1259
    1W        W28942   9.786  12.811   1.241 -0.0504 -0.0330  0.1546
    1W        W28943   0.184  20.869   8.002 -0.0307  0.1496  0.1733
    1W        W28944  18.467  27.703   0.892  0.2464  0.1154  0.2511
    1W        W28945  10.696  25.654   1.343  0.0570  0.0597  0.0919
    1W        W28946  11.299  14.411   1.201  0.0888  0.1241 -0.0360
    1W        W28947  27.687   4.421   8.631 -0.1181  0.1924  0.2446
    1W        W28948  10.548  14.920   1.349 -0.0448  0.1308 -0.1534
    1W        W28949  12.846  17.944   9.387 -0.2403 -0.0354 -0.2816
    1W        W28950  28.442  27.402   0.697  0.1527 -0.0409  0.1541
    1W        W28951  29.174   3.739   7.398  0.1304  0.0789 -0.0565
    1W        W28952   1.472  18.297   7.620 -0.1130 -0.0080 -0.1095
    1W        W28953   0.239   7.150   7.272  0.0297  0.0862  0.1136
    1W        W28954  25.760   0.616   6.234  0.0619  0.2734 -0.1570
    1W        W28955   8.643  17.843   7.661  0.2515  0.0581 -0.1152
    1W        W28956  20.830  20.861   2.609 -0.0436  0.1286  0.2651
    1W        W28957  13.444   4.571   1.938 -0.0198 -0.3049 -0.1845
    1W        W28958  11.621  20.861   0.380  0.0284  0.4322 -0.2021
    1W        W28959  27.832  25.198   2.664 -0.4200  0.1084 -0.0454
    1W        W28960  26.600  15.952   0.517 -0.0140 -0.3609 -0.0174
    1W        W28961  22.727  17.524   1.113 -0.0954  0.0420 -0.1928
    1W        W28962  20.796  27.754   9.487 -0.1708 -0.0182 -0.2922
    1W        W28963  10.255  12.397   0.427 -0.1263  0.0241 -0.1146
    1W        W28964   3.430  16.844   0.850 -0.0853  0.0291 -0.0177
    1W        W28965  27.288  17.647   0.885  0.1554  0.0845  0.1282
    1W        W28966   3.844  10.148   7.442  0.1624  0.0914  0.0137
    1W        W28967  28.202  11.918   1.903 -0.2122 -0.0377  0.0420
    1W        W28968   9.862  28.940   2.611  0.1128  0.3176 -0.4169
    1W        W28969   3.831   2.176   1.603 -0.1474  0.1094 -0.1649
    1W        W28970  12.227  16.341   7.006 -0.0929  0.1765 -0.0033
    1W        W28971   1.070  18.628   7.219 -0.1421  0.0304  0.2430
    1W        W28972  20.726  23.127   2.245 -0.1271 -0.1648 -0.1018
    1W        W28973   6.525  29.307   2.899 -0.5674 -0.0997 -0.1276
    1W        W28974  25.096  23.146   0.946 -0.2227 -0.4106  0.0375
    1W        W28975   5.612  10.932   0.958 -0.0523 -0.2950 -0.0809
    1W        W28976  19.071  15.339   8.729 -0.2186  0.0139  0.0764
    1W        W28977   0.772  26.700   7.591 -0.0952 -0.0195 -0.1816
    1W        W28978  11.715  21.105   7.235  0.0697 -0.2888 -0.2056
    1W        W28979  28.678  26.010   8.455 -0.0371  0.1306  0.1790
    1W        W28980  19.168  27.610   1.955  0.1291 -0.0084 -0.1346
    1W        W28981  11.336  23.822   7.082  0.4665  0.3042  0.1413
    1W        W28982  28.979   0.393   6.782 -0.0145  0.1509  0.0947
    1W        W28983  19.813  23.447   2.650  0.2704 -0.0866  0.1787
    1W        W28984  22.469  29.066   8.947 -0.0205  0.1528 -0.0960
    1W        W28985   8.615  10.466   1.850 -0.3863  0.0485  0.2816
    1W        W28986  20.664   2.260   7.952 -0.0932  0.1235 -0.0944
    1W        W28987  16.982   6.398   8.217 -0.0042  0.0061 -0.0646
    1W        W28988   4.016  26.315   0.257 -0.0919  0.0304  0.1481
    1W        W28989  26.471  28.669   1.773  0.0591 -0.3602 -0.1014
    1W        W28990   9.739  18.105   0.360 -0.0234  0.0885  0.0842
    1W        W28991  15.504  28.557   8.634  0.1752 -0.2024  0.1337
    1W        W28992  15.478  16.057   7.110 -0.0475 -0.1096 -0.2044
    1W        W28993   8.381  24.062   7.515  0.0930 -0.0239 -0.0741
    1W        W28994   5.183   7.372   6.733  0.2024  0.0139  0.1294
    1W        W28995  10.297   3.716   1.791 -0.2840 -0.0354  0.0257
    1W        W28996  26.720   3.343   7.631  0.1170  0.0672  0.0336
    1W        W28997   3.087  25.689   7.479  0.1461 -0.0213 -0.1874
    1W        W28998   5.181   3.733   9.546  0.2336  0.3215  0.0557
    1W        W28999  22.458  11.139   9.475 -0.2424 -0.0315 -0.0988
    1W        W29000  21.171  15.312   6.955 -0.1235 -0.1535  0.1163
    1W        W29001   7.594  18.779   1.804 -0.0273 -0.0150 -0.0600
    1W        W29002  10.020  21.485   8.535  0.0831  0.0014  0.1271
    1W        W29003  28.943  10.397   1.850  0.1830  0.1953 -0.2164
    1W        W29004  26.003  11.337   7.625  0.3839 -0.1234  0.0937
    1W        W29005   3.671  10.735   1.459 -0.2320 -0.0151  0.1640
    1W        W29006   7.112  27.894   0.177 -0.1228  0.0909  0.0129
    1W        W29007   1.505  19.493   7.114 -0.1989 -0.0268  0.2510
    1W        W29008  11.198  27.093   8.134 -0.1129 -0.2080  0.1307
    1W        W29009  23.945  28.405   7.388  0.0662 -0.2204  0.1281
    1W        W29010  26.029  19.120   0.027  0.1239 -0.0519 -0.1561
    1W        W29011  11.989  11.200   8.202 -0.0020 -0.1356  0.0809
    1W        W29012   7.155   4.299   8.113 -0.2161 -0.4629  0.0876
    1W        W29013  17.931  27.372   9.178 -0.1086 -0.0765  0.2191
    1W        W29014  20.135  24.876   2.436  0.3163 -0.3719 -0.1786
    1W        W29015   1.217  27.965   1.983 -0.1146 -0.0027  0.1461
    1W        W29016  11.570  10.927   8.049  0.1354 -0.0881  0.1222
    1W        W29017  13.617  14.721   0.214 -0.0157 -0.1562  0.2930
    1W        W29018  27.023  16.960   3.135 -0.2192 -0.1826  0.2717
    1W        W29019   3.500  24.246   9.214  0.3372  0.1792  0.0942
    1W        W29020   9.314  12.936   9.114  0.0869 -0.0786  0.3584
    1W        W29021  27.033  12.296   1.862 -0.2168 -0.2003  0.0687
    1W        W29022  14.335   2.628   4.451  0.0107  0.0326 -0.1787
    1W        W29023  14.276  20.978   0.546  0.0223  0.0015 -0.2808
    1W        W29024  13.531  24.882   2.826 -0.1410  0.1805 -0.1393
    1W        W29025  11.292  29.328   2.785  0.1209 -0.2445 -0.1200
    1W        W29026  17.742   6.740   7.968  0.1554 -0.0927 -0.2411
    1W        W29027   8.960  15.615   9.452  0.0584 -0.1043 -0.0070
    1W        W29028  26.047  21.804   8.820 -0.2689  0.1356 -0.3907
    1W        W29029  10.238   4.737   1.544  0.0678  0.0541  0.1958
    1W        W29030  24.861  14.007   0.342  0.1426 -0.1025 -0.0136
    1W        W29031  27.703  19.882   0.913 -0.1341  0.0219  0.0017
    1W        W29032  24.142   8.772   9.098  0.1522 -0.0994 -0.1338
    1W        W29033  23.508  28.471   8.515  0.1632  0.0166  0.1519
    1W        W29034  26.443  29.246   1.752  0.1892  0.2276 -0.0386
    1W        W29035  27.861   5.030   1.906 -0.0850  0.1097 -0.0931
    1W        W29036  10.165   8.648   2.502  0.1129 -0.1621  0.1309
    1W        W29037   2.969  17.860   8.784  0.2514 -0.2104 -0.1149
    1W        W29038   5.609  23.678   1.083 -0.2077 -0.1812  0.2743
    1W        W29039  28.029  21.453   6.607 -0.1911 -0.1635 -0.0620
    1W        W29040  16.779   5.030   2.719  0.1791 -0.2799 -0.0863
    1W        W29041  28.393  16.643   0.608  0.3425  0.1559  0.1034
    1W        W29042   5.836  17.264   1.485  0.1019 -0.2425  0.0425
    1W        W29043  22.813  20.496   1.446 -0.0519 -0.0875  0.2001
    1W        W29044  13.947   3.487   3.139  0.1437 -0.2339  0.0269
    1W        W29045  17.661   2.153   2.469  0.0705  0.2412  0.0994
    1W        W29046  27.284   6.345   0.232 -0.3386  0.0304 -0.1981
    1W        W29047  25.727  23.340   8.034  0.1344  0.1660  0.1332
    1W        W29048  16.755   2.664   7.569 -0.5064  0.1113 -0.1276
    1W        W29049  21.479   2.729   1.863 -0.2361  0.0308  0.0716
    1W        W29050  13.707   5.601   8.498  0.0103 -0.2577 -0.2336
    1W        W29051  16.063  25.412   0.146  0.0976 -0.0608  0.0940
    1W        W29052   9.032  12.168   8.557  0.3321  0.1068  0.1910
    1W        W29053  15.610  28.421   0.615 -0.1579 -0.1375 -0.0323
    1W        W29054   9.721  20.684   7.950  0.0533 -0.0838 -0.0983
    1W        W29055   4.921   2.076   3.605 -0.0843  0.2220  0.1147
    1W        W29056  19.044   4.865   2.433 -0.0028 -0.0068  0.1176
    1W        W29057   5.293   9.506   8.266 -0.1466  0.0334  0.1815
    1W        W29058   0.590   3.282   2.747  0.0480  0.1473 -0.5081
    1W        W29059  28.612   2.789   9.649 -0.0843  0.0293 -0.4845
    1W        W29060  28.839  27.628   3.199 -0.0955 -0.0398 -0.1257
    1W        W29061   6.722   8.105   6.860 -0.0018  0.2590  0.1920
    1W        W29062  19.163  11.659   0.264 -0.0231  0.0705  0.1005
    1W        W29063  25.791   2.690   0.748  0.2154  0.0287  0.1973
    1W        W29064   8.730   6.237   8.629 -0.0377 -0.0872 -0.1979
    1W        W29065   1.369  28.779   1.660  0.0784  0.0380  0.0765
    1W        W29066  21.156  16.526   8.674 -0.1191  0.2568 -0.0409
    1W        W29067  25.544   1.359   9.424  0.5087  0.1181  0.2187
    1W        W29068   4.211   7.935   8.001  0.2426  0.3986  0.2003
    1W        W29069  21.566   3.964   8.814  0.0465  0.2872  0.0051
    1W        W29070   4.446  15.947   8.257 -0.1250  0.0881 -0.2334
    1W        W29071   9.098  23.668   0.840  0.0649  0.0299 -0.2300
    1W        W29072  26.735   8.044   7.766 -0.0741  0.0977 -0.1132
    1W        W29073  18.189  23.661   2.319 -0.0191 -0.0594 -0.1500
    1W        W29074  17.882   9.588   8.256 -0.0652 -0.1171 -0.1126
    1W        W29075   5.652   8.862   3.514  0.1225  0.0891 -0.5336
    1W        W29076  12.370  20.355   0.692  0.0931 -0.2690  0.2398
    1W        W29077  15.357   3.751   3.360 -0.2278 -0.3249  0.0015
    1W        W29078  12.329  12.013   0.135  0.0466 -0.1959  0.1459
    1W        W29079  10.030  13.234   0.054 -0.4300  0.1380  0.2910
    1W        W29080   1.177   6.218   0.107  0.1102  0.1006 -0.1594
    1W        W29081  23.290  26.208   2.308  0.0243  0.1323  0.0148
    1W        W29082  14.409   8.532   7.978 -0.0974  0.1192 -0.0490
    1W        W29083  13.198   9.783   1.831  0.1317 -0.1098  0.5941
    1W        W29084  18.462   2.054   6.785  0.0936  0.3133 -0.2690
    1W        W29085  13.796  20.957   1.502 -0.2227  0.0732 -0.0402
    1W        W29086   5.810  10.514   8.853  0.0086  0.2191  0.2723
    1W        W29087   6.519  17.245   7.456 -0.0439 -0.2438  0.1141
    1W        W29088  13.201  27.229   3.332 -0.0699 -0.2795 -0.0500
    1W        W29089  17.355  28.585   3.843  0.0094 -0.4469  0.0131
    1W        W29090   5.949  27.950   7.897  0.0742 -0.2279  0.1563
    1W        W29091  12.284   3.290   0.506  0.0803 -0.0362  0.0162
    1W        W29092  27.909  16.871   6.936  0.0653 -0.0871 -0.0590
    1W        W29093  21.259  28.076   7.560 -0.0438  0.0180 -0.0384
    1W        W29094   1.394   4.383   0.182 -0.0975  0.0416 -0.0557
    1W        W29095  27.390   4.279   8.146  0.0947 -0.0021  0.2173
    1W        W29096  25.754   9.219   0.257 -0.5226 -0.0541 -0.1778
    1W        W29097  24.804   7.220   1.952 -0.2851  0.1220 -0.2079
    1W        W29098  18.336  28.112   9.416  0.0438 -0.1296 -0.2288
    1W        W29099  28.441  25.850   9.253 -0.0313 -0.1900 -0.3258
    1W        W29100  10.395  27.328   2.021 -0.1046  0.1704  0.0776
    1W        W29101   4.883  13.104   1.967  0.3585 -0.1081  0.0145
    1W        W29102  19.901   1.726   9.627  0.2219  0.0598  0.0850
    1W        W29103  14.934   6.870   8.896 -0.2191  0.2729  0.1854
    1W        W29104  12.110  24.789   9.588 -0.0278  0.2097  0.2911
    1W        W29105   3.709  10.953   6.626  0.0582  0.0670 -0.0194
    1W        W29106  23.603  12.308   8.861 -0.0555 -0.1075 -0.0338
    1W        W29107   9.673  15.295   2.533  0.0138  0.2019 -0.0820
    1W        W29108   1.883  10.997   6.822  0.1270 -0.1006 -0.2298
    1W        W29109   1.654   6.281   9.585  0.3051  0.2090  0.3030
    1W        W29110  21.173   8.942   7.414 -0.1444  0.1294  0.0691
    1W        W29111  26.880   0.277   0.254 -0.1702  0.4122  0.3665
    1W        W29112  12.110  25.666   3.897  0.0422 -0.0653  0.1475
    1W        W29113  18.669  13.720   6.831  0.0835  0.2423 -0.1582
    1W        W29114  26.673  26.959   3.105  0.3550  0.1579 -0.0135
    1W        W29115  19.595   7.287   7.977 -0.0418  0.1278  0.1429
    1W        W29116  23.000   9.172   9.668  0.0148 -0.1204  0.0662
    1W        W29117  14.768  12.458   8.959 -0.3402 -0.0544  0.0080
    1W        W29118   9.410  19.579   1.998  0.0970 -0.1840 -0.1406
    1W        W29119  14.455   2.076   0.703  0.2659 -0.1205  0.3064
    1W        W29120  27.913  22.941   1.241  0.2358 -0.1064  0.1519
    1W        W29121  11.963   0.466   2.721 -0.0829  0.2745 -0.2673
    1W        W29122   6.963  24.811   6.110 -0.1441  0.1619 -0.4045
    1W        W29123  27.962  23.697   0.557 -0.0271  0.1794 -0.1725
    1W        W29124  27.217  11.976   0.825 -0.3515  0.2306  0.0203
    1W        W29125  18.392   6.761   2.448 -0.1172 -0.2694  0.0119
    1W        W29126   1.844  20.227   9.185  0.2302  0.0958 -0.0585
    1W        W29127   8.488   5.247   7.730  0.1930  0.0826  0.2778
    1W        W29128  21.057   1.079   9.387  0.0596 -0.2433 -0.1221
    1W        W29129  28.805  28.911   7.400 -0.2165  0.0142  0.2416
    1W        W29130  11.564  28.171   8.292  0.0910  0.1405  0.3811
    1W        W29131   1.582  28.125   0.307 -0.0232  0.1015  0.2873
    1W        W29132  22.629  26.465   7.502  0.0266  0.1923 -0.0699
    1W        W29133  21.512  27.898   0.274 -0.0856 -0.1905 -0.1899
    1W        W29134   3.008  29.249   1.151 -0.1613  0.1353 -0.2302
    1W        W29135   2.262   8.096   9.672 -0.1151 -0.0970  0.0421
    1W        W29136  12.432  21.247   1.049 -0.0930  0.1602 -0.1635
    1W        W29137  26.520   6.411   7.911  0.0114 -0.0348  0.1270
    1W        W29138  18.615  15.035   2.723 -0.1508 -0.1268  0.1122
    1W        W29139   6.411  26.256   2.625  0.0260 -0.2425  0.1160
    1W        W29140  11.293   1.269   2.931 -0.3962  0.0456  0.1445
    1W        W29141  24.090   4.219   1.301  0.0470  0.0539  0.4571
    1W        W29142  10.535  11.141   0.015 -0.1957  0.1870  0.3233
    1W        W29143  28.963  11.186   1.234  0.1699  0.2187  0.0737
    1W        W29144  17.485   9.610   8.780  0.2515 -0.0062  0.0978
    1W        W29145   8.279   0.356   0.288 -0.1135 -0.0985  0.1350
    1W        W29146   4.858  26.448   1.645  0.1406 -0.0994 -0.0815
    1W        W29147  12.406  21.632   0.642  0.0846 -0.2030 -0.0996
    1W        W29148  26.690  24.006   2.017  0.0286 -0.0285 -0.4908
    1W        W29149  23.472  17.603   7.396 -0.0387 -0.2332  0.1766
    1W        W29150   0.843  28.809   1.135  0.0680 -0.0246  0.1370
    1W        W29151  22.650  13.549   6.754 -0.3317  0.2878  0.0890
    1W        W29152  15.220   3.348   7.135 -0.0975 -0.0950 -0.2013
    1W        W29153   2.626  23.839   6.942  0.1486 -0.2880 -0.0144
    1W        W29154   3.699  16.541   1.288 -0.2422  0.1313  0.0116
    1W        W29155  13.445   7.097   9.500 -0.2302 -0.0383 -0.1077
    1W        W29156  21.127   1.813   7.931  0.0434 -0.0826  0.2637
    1W        W29157  27.924  19.166   7.316 -0.1549  0.0056  0.0369
    1W        W29158  17.971  10.580   8.211 -0.0822 -0.1566  0.1243
    1W        W29159   5.476  25.196   7.550 -0.0253  0.0421  0.1954
    1W        W29160  28.970  27.431   0.989  0.1977 -0.0400 -0.2899
    1W        W29161  18.403  12.539   9.234 -0.0163  0.0829  0.1185
    1W        W29162   0.016   6.906   7.666  0.0907 -0.1619 -0.0579
    1W        W29163   4.312  10.519   7.289 -0.0673 -0.2651 -0.0915
    1W        W29164  24.907  23.334   1.460  0.0243 -0.1216  0.0450
    1W        W29165  18.524  19.356   2.693  0.0558 -0.1391 -0.0045
    1W        W29166  23.830  10.021   1.323  0.0849 -0.1119  0.0581
    1W        W29167   7.341  21.446   1.039  0.2820  0.0222 -0.1312
    1W        W29168  20.451  11.867   1.610 -0.0422 -0.0621  0.0207
    1W        W29169  21.859  27.770   8.809 -0.5585  0.1897  0.0232
    1W        W29170  24.132  21.408   1.087  0.0396 -0.2863 -0.1434
    1W        W29171   1.433   0.298   2.268 -0.0349 -0.2032 -0.0424
    1W        W29172  13.473  17.942   0.950  0.1685 -0.2561  0.0548
    1W        W29173  21.210   7.931   8.492 -0.1689  0.1522  0.2262
    1W        W29174  22.168  22.268   8.350  0.0287 -0.0247 -0.1600
    1W        W29175  28.850  23.109   7.942 -0.1788 -0.0562 -0.1207
    1W        W29176   3.288   1.208   5.859  0.1182  0.1318 -0.0835
    1W        W29177  26.845   8.996   8.450 -0.1941  0.1602 -0.2296
    1W        W29178   6.709  22.823   0.009 -0.0348  0.1318 -0.1626
    1W        W29179  26.441   6.902   8.090  0.4298 -0.0151  0.1052
    1W        W29180  16.304   7.013   0.447  0.0895 -0.2293  0.0955
    1W        W29181  18.672  14.997   8.707  0.0864  0.1014 -0.2063
    1W        W29182  17.253  12.498   0.312  0.0104  0.0266  0.0455
    1W        W29183  20.537   6.731   3.066 -0.1957 -0.0020 -0.0206
    1W        W29184  17.542  29.184   8.904  0.0050 -0.1648  0.2624
    1W        W29185  27.447   7.073   9.242  0.0606 -0.0303 -0.0120
    1W        W29186  25.182   3.352   2.940  0.0578 -0.3055 -0.2836
    1W        W29187   4.142   3.700   8.551  0.0710 -0.0933  0.2961
    1W        W29188   9.938  28.225   9.489 -0.0736 -0.0261  0.3291
    1W        W29189  23.943   4.453   9.048  0.1773 -0.4096 -0.1493
    1W        W29190  18.249   4.421   2.155 -0.3425 -0.4309 -0.1002
    1W        W29191  20.595  25.932   7.565  0.3440 -0.4326 -0.2353
    1W        W29192  16.222   2.005   7.485  0.0064 -0.1027  0.0935
    1W        W29193   4.553  17.300   7.527 -0.1672  0.1663  0.2852
    1W        W29194  14.757  25.624   0.303  0.0273  0.0587  0.0560
    1W        W29195  22.485   4.827   9.482 -0.1588 -0.2853 -0.2463
    1W        W29196   8.437   5.880   6.904  0.0570  0.1199  0.0907
    1W        W29197   3.958  10.562   7.759  0.2964 -0.2402 -0.0635
    1W        W29198  17.378  19.981   9.535 -0.1933 -0.0063  0.0452
    1W        W29199  20.409   1.361   7.426  0.1277  0.0209  0.2299
    1W        W29200  11.335  11.310   7.563  0.1829  0.1325 -0.0509
    1W        W29201  25.156  27.284   9.684 -0.1742 -0.2173 -0.1713
    1W        W29202  26.799   6.322   5.751  0.1030 -0.1467  0.0102
    1W        W29203   2.444   0.244   0.154  0.1679  0.4317 -0.1912
    1W        W29204   8.051  12.459   8.124 -0.0435  0.1400 -0.1579
    1W        W29205   7.243  19.465   0.059 -0.1476  0.1444  0.1349
    1W        W29206   8.018  23.042   9.050 -0.1121 -0.3068  0.1189
    1W        W29207   1.942  21.220   8.584  0.1254 -0.1909 -0.1287
    1W        W29208  18.608   7.995   9.107  0.2889 -0.3340  0.0862
    1W        W29209  28.128  15.521   7.267 -0.0098  0.1665  0.0191
    1W        W29210   9.545   1.260   8.607 -0.0968 -0.0580 -0.3157
    1W        W29211  14.447   0.760   8.954 -0.0415  0.1572  0.2484
    1W        W29212   9.810   5.055   3.124  0.1112  0.2963 -0.0453
    1W        W29213  17.483  21.391   7.934  0.0086  0.0153 -0.2051
    1W        W29214  19.725   9.339   8.960 -0.1967  0.0213  0.1262
    1W        W29215   1.546  26.380   1.047 -0.3877 -0.1086  0.0859
    1W        W29216  13.039  24.320   1.044 -0.5040 -0.2608 -0.0578
    1W        W29217  14.738   0.175   8.335  0.2012  0.0069 -0.2087
    1W        W29218   4.570   0.237   1.498 -0.0674  0.1031  0.0481
    1W        W29219  23.690  27.247   2.772 -0.0680 -0.3730  0.2251
    1W        W29220   1.007  14.366   7.356  0.0381 -0.2489  0.0079
    1W        W29221   9.809  11.701   2.411  0.0751 -0.1754 -0.2492
    1W        W29222   2.657  11.619   2.456  0.0460 -0.2775  0.1224
    1W        W29223  27.531   9.486   2.868  0.3553 -0.1135 -0.0253
    1W        W29224  23.272  25.988   8.091  0.4749  0.2205  0.3198
    1W        W29225  28.967  10.823   3.208  0.0371 -0.1073  0.4461
    1W        W29226   9.382   4.795   9.462  0.1094 -0.0053 -0.1057
    1W        W29227  10.237   4.937   7.612 -0.1858 -0.1695  0.0418
    1W        W29228  16.699  12.508   7.565  0.0877 -0.1337 -0.0469
    1W        W29229  18.666  11.574   7.394  0.2531  0.0097 -0.0569
    1W        W29230   2.643  28.948   1.436 -0.3418 -0.2473 -0.0354
    1W        W29231  24.448  14.849   8.554  0.2044  0.0646  0.1273
    1W        W29232  14.382  22.393   8.186  0.0265 -0.3375  0.2885
    1W        W29233   5.115  17.643   1.480 -0.0142 -0.0428 -0.3774
    1W        W29234  12.053   1.772   1.756 -0.2317 -0.1157 -0.3675
    1W        W29235  17.963   9.234   0.062  0.1450  0.2518 -0.0713
    1W        W29236   1.045  27.004   8.848 -0.1516  0.1269 -0.0913
    1W        W29237  26.954  11.499   7.652  0.1651  0.3304  0.1017
    1W        W29238   7.390   7.764   9.362  0.0970 -0.3654 -0.0919
    1W        W29239  13.665  25.736   8.499 -0.0365 -0.3437  0.1761
    1W        W29240  12.089  17.782   1.735  0.2165 -0.0972 -0.0678
    1W        W29241  21.457   0.837   9.328 -0.4738  0.0221  0.0937
    1W        W29242   0.341  11.002   1.986 -0.1859 -0.0852  0.3995
    1W        W29243  24.840  26.398   2.409 -0.1360 -0.0100 -0.0395
    1W        W29244  20.263  10.249   7.366  0.0832  0.0181  0.2568
    1W        W29245   0.882   4.189   6.205  0.0152 -0.0311  0.2816
    1W        W29246   7.927  26.942   2.830  0.0428 -0.2525 -0.2454
    1W        W29247  22.251  23.629   9.402  0.2018 -0.1984 -0.0204
    1W        W29248   4.670  11.645   2.186  0.0413  0.0728  0.1820
    1W        W29249   6.762   2.420   9.624  0.2628 -0.1188 -0.1094
    1W        W29250  18.895  26.702   3.001 -0.2303 -0.0278  0.3051
    1W        W29251  23.270  11.675   1.196 -0.2008 -0.0947  0.3149
    1W        W29252  26.260   4.956   7.609  0.1711 -0.2566 -0.1680
    1W        W29253  15.842  18.288   8.346 -0.2604 -0.1254  0.1705
    1W        W29254  27.197  11.483   2.375 -0.1200  0.1715  0.0755
    1W        W29255  13.008  12.187   1.987  0.0025 -0.1264  0.0648
    1W        W29256  24.696   8.902   9.130 -0.1732 -0.0116  0.0653
    1W        W29257  19.644  10.633   1.234 -0.0675 -0.2812  0.1051
    1W        W29258  11.513  17.126   7.936  0.0135 -0.0429  0.4015
    1W        W29259   1.161  26.560   6.625 -0.0853 -0.0173  0.1613
    1W        W29260   2.547  19.033   1.798  0.2036 -0.1039 -0.4545
    1W        W29261   0.188   0.741   7.279  0.0927  0.0681 -0.2165
    1W        W29262  11.987   7.605   1.082  0.0965  0.4145  0.0400
    1W        W29263  17.044   8.648   7.543 -0.1783  0.0693  0.2646
    1W        W29264  19.638  17.609   7.954 -0.0834 -0.0810 -0.1539
    1W        W29265  28.931  24.958   0.343 -0.2423 -0.2361 -0.1777
    1W        W29266  28.727  17.580   7.103 -0.1746 -0.0775  0.0280
    1W        W29267   8.761   3.466   7.751  0.0634 -0.0817  0.3020
    1W        W29268  16.837  16.241   9.613 -0.1913  0.0838  0.0130
    1W        W29269  26.131   4.571   0.209  0.1039 -0.1500 -0.2603
    1W        W29270   0.660  11.224   5.927 -0.0959 -0.0431 -0.1498
    1W        W29271   8.595  27.776   0.551  0.0701 -0.1479  0.0588
    1W        W29272  28.149   6.251   2.144  0.0247  0.4104 -0.3684
    1W        W29273   9.975   5.058   2.669  0.0166 -0.1464 -0.3557
    1W        W29274  24.152   4.537   1.711  0.0991  0.1674 -0.0911
    1W        W29275  16.636  20.302   1.438 -0.1450  0.0229 -0.0175
    1W        W29276  26.704   3.517   6.498 -0.2259 -0.1184 -0.0992
    1W        W29277  22.463   1.011   2.169 -0.1037  0.1893  0.2048
    1W        W29278  25.132  17.149   1.777 -0.0252  0.0439  0.2013
    1W        W29279  22.570  26.334   6.761  0.2003  0.0442  0.1694
    1W        W29280   8.072  18.467   1.914 -0.4103  0.1467 -0.0896
    1W        W29281  26.797  28.849   2.306  0.0726 -0.0522 -0.2274
    1W        W29282  23.305   4.916   7.265 -0.0964  0.2108 -0.1025
    1W        W29283  13.053  11.011   0.306  0.0710  0.0252  0.1664
    1W        W29284  25.995  22.947   2.553 -0.2867 -0.1716 -0.0370
    1W        W29285   1.685  27.754   3.127 -0.2345  0.1604  0.1473
    1W        W29286  19.330  11.743   8.737  0.2232  0.2204  0.0882
    1W        W29287  15.663  10.737   1.753 -0.0518  0.0878  0.3619
    1W        W29288  16.425   8.190   9.408  0.1712 -0.0128  0.1488
    1W        W29289   2.590  29.254   2.028 -0.0810 -0.1179  0.3916
    1W        W29290   7.787  17.199   9.189 -0.1055 -0.2198  0.3326
    1W        W29291   8.084   1.489   2.193  0.0404 -0.1691 -0.2786
    1W        W29292   7.765  28.922   0.436 -0.0190 -0.0967 -0.3915
    1W        W29293  15.232  27.662   3.434 -0.4174 -0.1008  0.2463
    1W        W29294   5.289   9.421   2.710 -0.1065 -0.1386 -0.1084
    1W        W29295  17.660   0.208   1.389 -0.2611  0.1160  0.0634
    1W        W29296  18.866  25.579   1.005  0.0012 -0.0762 -0.0323
    1W        W29297  22.437   6.672   3.321  0.0114  0.0616  0.0676
    1W        W29298  15.890   4.183   9.333 -0.1619 -0.2729  0.0187
    1W        W29299  25.560   0.957   0.169  0.0943 -0.5354  0.1556
    1W        W29300  28.356   7.860   7.633 -0.2033 -0.1680 -0.1598
    1W        W29301  18.115  27.182   3.187  0.0549 -0.3560 -0.0022
    1W        W29302  20.455  11.798   7.656  0.0730  0.1292 -0.0579
    1W        W29303   8.079   3.122   2.039 -0.0315  0.1683 -0.1460
    1W        W29304   4.417   8.550   0.776 -0.0440 -0.3354 -0.4529
    1W        W29305   6.233  16.361   6.667 -0.0496  0.0827 -0.0392
    1W        W29306  25.204  21.681   2.144  0.1225 -0.3996  0.2134
    1W        W29307   7.598   6.783   7.022  0.2491 -0.1654  0.1195
    1W        W29308  12.988   5.620   9.243 -0.0168 -0.1520  0.0934
    1W        W29309  21.784  15.804   7.102  0.3144 -0.0494 -0.0147
    1W        W29310  22.415   6.200   7.394 -0.0860  0.1667 -0.2144
    1W        W29311  10.741   8.371   0.744  0.1614  0.1412 -0.0930
    1W        W29312   9.845  10.315   8.494  0.0875 -0.1075 -0.0581
    1W        W29313  14.142  26.939   0.201 -0.5346  0.2109  0.0291
    1W        W29314  24.442  20.036   1.560  0.0446  0.0273  0.1794
    1W        W29315   7.221  15.807   0.377  0.4453 -0.2418  0.0695
    1W        W29316  24.567  26.311   9.247  0.0668  0.2160  0.2649
    1W        W29317  26.586   3.880   7.033  0.2360 -0.2160 -0.4515
    1W        W29318   3.784  12.166   2.019 -0.0921  0.0639 -0.0196
    1W        W29319   3.424   1.285   8.710 -0.0583  0.2213 -0.0704
    1W        W29320  22.214   3.181   6.083  0.1719  0.0686 -0.0683
    1W        W29321  14.360   1.696   0.408 -0.1211 -0.0597  0.1512
    1W        W29322  10.270   4.138   3.894 -0.0358 -0.0320  0.5107
    1W        W29323   6.550  11.264   8.716 -0.2309 -0.1132 -0.0701
    1W        W29324  16.145  14.493   0.616 -0.1076 -0.0004  0.0963
    1W        W29325  27.331  24.423   1.943  0.1389  0.2647  0.0802
    1W        W29326  29.239  11.619   8.185  0.2151  0.0737  0.1818
    1W        W29327  20.793  20.556   2.194 -0.2468  0.0264  0.1149
    1W        W29328  19.090  14.326   9.679 -0.0989 -0.1204  0.1404
    1W        W29329  25.152   3.249   5.335  0.0749 -0.0543  0.0048
    1W        W29330  11.054   6.244   1.033  0.0740 -0.1411 -0.0756
    1W        W29331  16.625   5.964   1.959 -0.0952  0.0243  0.2446
    1W        W29332  19.584  12.854   7.260 -0.1698  0.1402 -0.0625
    1W        W29333   6.132  26.379   8.790  0.2452 -0.0857  0.0274
    1W        W29334  25.389  17.011   0.161 -0.1160 -0.1755  0.0343
    1W        W29335  28.087  18.006   1.235  0.0178  0.0972  0.1084
    1W        W29336  13.090  22.332   3.007  0.0836  0.0275  0.0689
    1W        W29337  25.449  14.636   0.630 -0.0982 -0.2503 -0.2342
    1W        W29338  14.585  17.729   7.567 -0.3308  0.3162  0.0343
    1W        W29339  14.531   7.610   2.202  0.2141 -0.0520  0.2318
    1W        W29340  14.457   8.708   1.817  0.0851  0.0975 -0.1901
    1W        W29341   8.170  10.567   8.752 -0.0504  0.1349 -0.1683
    1W        W29342  26.601  12.609   7.181 -0.0518  0.0176  0.1398
    1W        W29343  19.995  18.017   6.904  0.1773  0.0106 -0.0604
    1W        W29344   4.748  15.179   0.665  0.0369 -0.1558  0.0662
    1W        W29345  18.646  16.090   8.865 -0.2266 -0.2838  0.1275
    1W        W29346   2.156  13.978   8.108 -0.0341 -0.2024  0.2690
    1W        W29347  26.322  20.106   6.822  0.2525 -0.1111 -0.1125
    1W        W29348   9.897  13.423   7.846 -0.0023  0.1686  0.2305
    1W        W29349  16.656  19.229   8.964  0.1214 -0.0316 -0.0218
    1W        W29350   2.571   6.205   6.794  0.0860  0.0637 -0.2016
    1W        W29351   8.955   8.099   0.549 -0.0703  0.1827  0.2839
    1W        W29352  28.133  28.784   9.350 -0.2266 -0.0603  0.0928
    1W        W29353  13.543   8.729   2.231  0.2197 -0.0612  0.1235
    1W        W29354   6.349   8.821   7.695  0.0124  0.0869 -0.1981
    1W        W29355  27.658  19.969   9.269 -0.2798  0.1236 -0.0024
    1W        W29356   2.915  26.748   9.319 -0.0445 -0.1149 -0.0823
    1W        W29357   8.612  17.291   2.007 -0.1114 -0.0702  0.2216
    1W        W29358  21.677   1.332   7.711 -0.1510 -0.4256  0.2117
    1W        W29359   3.774  21.316   2.814  0.3066 -0.2446 -0.1020
    1W        W29360   8.613  16.954   7.778  0.0010 -0.0156  0.0548
    1W        W29361   2.359  11.392   9.614  0.4967  0.0542 -0.2127
    1W        W29362  24.273   5.008   8.243 -0.2736 -0.3629  0.1348
    1W        W29363  12.189  29.023   3.977  0.0054 -0.0212 -0.0604
    1W        W29364   3.456   2.260   9.239 -0.1533  0.1441  0.1524
    1W        W29365  25.846  22.103   2.911 -0.0606  0.0224  0.0895
    1W        W29366  11.634   9.212   2.859 -0.0807 -0.0672  0.0232
    1W        W29367   5.429   4.483   2.158  0.2674  0.5274  0.1097
    1W        W29368  16.304  23.964   7.539  0.2254  0.2025  0.2028
    1W        W29369   5.505   6.324   1.138  0.1890  0.0328  0.4296
    1W        W29370  10.514  29.115   8.826 -0.0019  0.1902  0.1203
    1W        W29371  29.293   0.006   0.144 -0.2533 -0.0004  0.2041
    1W        W29372  16.591  25.477   0.167 -0.2820 -0.2325 -0.0428
    1W        W29373  17.479  20.696   0.060  0.2458 -0.0310 -0.0164
    1W        W29374   9.000  23.972   5.879 -0.0438 -0.2062  0.0170
    1W        W29375  26.901  24.788   9.305  0.0776 -0.1737 -0.2721
    1W        W29376   1.178  19.951   7.565  0.0038  0.0067  0.4074
    1W        W29377  10.682   4.241   8.187 -0.2173  0.1174  0.1157
    1W        W29378  11.158   9.583   2.753  0.1757 -0.2438  0.0140
    1W        W29379   6.498  12.066   9.562  0.0675 -0.0944  0.0988
    1W        W29380  13.824   2.125   3.960 -0.0196 -0.0602 -0.0873
    1W        W29381  23.437   4.982   9.077  0.1990 -0.3045  0.3785
    1W        W29382  22.606  29.085   2.937  0.0854 -0.2560 -0.4308
    1W        W29383  15.360  13.930   0.256  0.0329  0.0517 -0.2150
    1W        W29384   3.266   4.632   0.142  0.1268  0.1453 -0.2110
    1W        W29385  16.703   5.632   2.355  0.0004  0.1866  0.1131
    1W        W29386  27.848  20.557   3.049  0.3958  0.2397 -0.0128
    1W        W29387   5.029   2.767   2.314  0.2318 -0.2565 -0.4192
    1W        W29388   4.064   2.911   9.280 -0.1112  0.2000  0.1191
    1W        W29389  28.129  19.594   6.702 -0.0387 -0.0895  0.0430
    1W        W29390   3.786   7.758   6.791  0.1744  0.1214  0.0504
    1W        W29391  12.388   6.025   8.153 -0.0148  0.2718  0.1050
    1W        W29392   2.990  21.395   8.202  0.0251 -0.0982  0.1097
    1W        W29393   9.829  18.981   8.144 -0.1008 -0.2326  0.3044
    1W        W29394  23.678  14.439   9.389  0.2374 -0.0981 -0.0774
    1W        W29395  14.422  18.388   0.855 -0.1745 -0.2631 -0.2575
    1W        W29396  24.821   2.113   9.357 -0.0861  0.1596  0.0729
    1W        W29397  29.011  18.317   9.323  0.2578  0.1026  0.0387
    1W        W29398   6.313  13.993   1.776 -0.0092  0.0307  0.0728
    1W        W29399  13.632  16.038   7.394  0.1858 -0.0204 -0.3746
    1W        W29400  16.668   3.399   7.171 -0.2345 -0.0658  0.1063
    1W        W29401   7.932  22.141   7.352  0.0426  0.1202  0.1131
    1W        W29402  20.588  22.681   2.000 -0.0579  0.1091  0.1403
    1W        W29403  27.672  15.968   0.930 -0.1703  0.0401  0.0406
    1W        W29404   1.758   7.697   7.979 -0.0988 -0.0796 -0.1842
    1W        W29405  23.966  23.737   1.467  0.1878 -0.2776  0.1624
    1W        W29406  21.935   2.310   7.958  0.0039 -0.1107  0.0501
    1W        W29407   8.217  28.011   7.145 -0.0704  0.1883  0.3154
    1W        W29408  25.019  24.689   8.948 -0.0013 -0.0068 -0.2817
    1W        W29409   8.949  20.683   9.095 -0.0556 -0.1712  0.2003
    1W        W29410  25.019   2.589   9.155  0.1579 -0.0098 -0.2363
    1W        W29411  19.814  23.391   7.974 -0.1583  0.1594 -0.1084
    1W        W29412  19.038   4.761   8.815  0.1576  0.2021  0.3520
    1W        W29413  14.543   2.960   4.065  0.1229 -0.3176  0.1955
    1W        W29414  28.983  16.121   9.123  0.1581 -0.1460  0.0245
    1W        W29415   5.027  27.458   8.093 -0.1574 -0.3152 -0.3493
    1W        W29416  23.404  14.556   8.940  0.0777 -0.2613  0.0131
    1W        W29417  11.935   1.589   1.325 -0.1379  0.1687 -0.0019
    1W        W29418  13.959   6.991   1.500 -0.2808  0.2829 -0.1274
    1W        W29419  20.113   4.058   7.675  0.6077  0.3302 -0.0788
    1W        W29420  13.314  26.076   1.092  0.1972  0.1403  0.3425
    1W        W29421   0.715   8.791   2.014  0.2963  0.0374  0.0720
    1W        W29422  15.065   0.954   0.176  0.0798  0.1114  0.2613
    1W        W29423   4.318   6.895   2.045 -0.0943  0.0780  0.3588
    1W        W29424   0.501  10.068   1.748 -0.1226 -0.0987  0.1477
    1W        W29425  16.996  21.897   8.998 -0.1451  0.2790  0.1111
    1W        W29426  21.377  25.895   8.440  0.2384  0.3506  0.2595
    1W        W29427   2.992   1.040   0.653 -0.2251  0.0848 -0.0050
    1W        W29428   8.608   2.957   0.959 -0.0561  0.0585 -0.0167
    1W        W29429  21.469  22.761   0.274 -0.1493 -0.3161 -0.0921
    1W        W29430   3.346  18.590   6.820 -0.1233  0.1315 -0.1609
    1W        W29431  11.374  22.622   2.483  0.2052  0.3909 -0.1024
    1W        W29432  11.978  21.872   7.525 -0.1955 -0.3278  0.3686
    1W        W29433  13.374   3.709   3.523 -0.1980  0.0955 -0.0983
    1W        W29434   4.689   3.908   1.471 -0.0621  0.2286  0.2218
    1W        W29435  19.620   3.998   6.945  0.3717  0.0708  0.1613
    1W        W29436  21.690   3.307   7.168 -0.2951 -0.2346  0.0263
    1W        W29437   6.925  19.817   8.708 -0.3765  0.1048  0.1353
    1W        W29438   9.383  20.567   7.093  0.0631 -0.3261 -0.0428
    1W        W29439  27.559  16.758   1.728  0.0165 -0.0818  0.0088
    1W        W29440  28.283   1.135   8.533  0.1649 -0.0455 -0.1599
    1W        W29441   8.946  19.830   9.159  0.1433  0.0944  0.0268
    1W        W29442  12.483  13.241   7.648  0.0527  0.1615 -0.1542
    1W        W29443   6.544  11.772   7.764  0.0618  0.2376 -0.1730
    1W        W29444  14.205  21.785   9.586  0.0482 -0.0166  0.1474
    1W        W29445  27.672  12.363   8.701 -0.4404  0.0209 -0.3138
    1W        W29446   8.976  18.236   6.606 -0.0416 -0.1835 -0.1426
    1W        W29447  27.966   9.542   8.320 -0.5576 -0.1280 -0.0330
    1W        W29448   7.299  27.417   2.168 -0.2423  0.4549  0.0533
    1W        W29449   5.789   9.300   1.427 -0.0390  0.3916  0.2022
    1W        W29450   6.040  23.921   2.351 -0.1016 -0.2047  0.4073
    1W        W29451   6.332  27.078   2.238  0.0004  0.2492 -0.4241
    1W        W29452   9.302  25.330   9.271 -0.3929  0.2394  0.1919
    1W        W29453  10.363  28.644   9.306 -0.1430 -0.0102 -0.3143
    1W        W29454  27.876  12.869   7.963 -0.4116  0.2183  0.0518
    1W        W29455  22.980  10.379   0.894  0.2341  0.0922 -0.0725
    1W        W29456   3.910   0.087   8.340 -0.0781  0.0766 -0.3206
    1W        W29457  15.022  15.374   1.559 -0.0725 -0.1664 -0.1025
    1W        W29458   8.954  25.074   9.549 -0.0603  0.2722 -0.0963
    1W        W29459   7.927   9.859   6.805 -0.0601 -0.0166 -0.1258
    1W        W29460  13.673   7.221   3.076 -0.2648 -0.0844  0.0619
    1W        W29461   3.220   0.335   7.034  0.1019  0.2558  0.0420
    1W        W29462  24.509   2.851   1.835 -0.2199  0.0156  0.2238
    1W        W29463   5.246   7.358   7.229  0.0593  0.0898  0.1852
    1W        W29464  19.186  12.005   1.736 -0.0092 -0.0166 -0.2296
    1W        W29465   7.317   2.820   9.228  0.2204  0.2584 -0.0318
    1W        W29466  21.339   9.102   9.130 -0.0713  0.2266  0.0824
    1W        W29467   6.960  28.514   2.934 -0.1857  0.0105 -0.2098
    1W        W29468  22.072   5.108   6.077  0.1739  0.1623  0.0014
    1W        W29469  25.375  22.325   2.690 -0.1339  0.1306 -0.0357
    1W        W29470  25.637   4.041   1.002  0.0121 -0.0076  0.3519
    1W        W29471  15.438   4.152   1.612  0.2373  0.2057 -0.0742
    1W        W29472  18.074  19.543   0.144 -0.0420 -0.1507 -0.0118
    1W        W29473   3.207   1.793   9.023 -0.3650  0.2345  0.0981
    1W        W29474  16.446  29.345   2.646 -0.0081 -0.0112 -0.1465
    1W        W29475  24.973   7.689   8.824  0.2318  0.0061 -0.0490
    1W        W29476  16.359   4.049   3.635 -0.0683 -0.3411  0.0819
    1W        W29477  24.631  28.722   8.890 -0.1618 -0.1632  0.1438
    1W        W29478  12.482  22.576   7.673  0.3598  0.2405 -0.0701
    1W        W29479  11.838  26.632   1.222  0.1886  0.0073 -0.1729
    1W        W29480  11.145  12.724   8.963 -0.0783  0.1619 -0.2731
    1W        W29481  12.185   9.611   8.500 -0.4862  0.1738  0.1035
    1W        W29482  20.703  10.019   2.307 -0.0158  0.0465 -0.3619
    1W        W29483  22.177   0.769   9.365 -0.0546 -0.0596  0.0716
    1W        W29484   3.085  17.921   3.036  0.2391  0.1546 -0.0183
    1W        W29485  23.537  16.152   6.997 -0.3380  0.1869  0.0349
    1W        W29486  23.072  22.007   8.442  0.0834  0.0742  0.0813
    1W        W29487  11.172  28.787   9.622 -0.0019  0.0686 -0.0410
    1W        W29488  10.148   6.312   6.611 -0.2535 -0.1800 -0.1802
    1W        W29489  22.652  21.791   8.063  0.1119 -0.1146  0.1069
    1W        W29490  16.340  17.294   1.365  0.4696 -0.1625 -0.0966
    1W        W29491  27.440   2.286   3.457  0.0272 -0.0533  0.2138
    1W        W29492  23.740  23.137   9.119  0.3282  0.1632  0.0667
    1W        W29493   0.284  26.942   8.480  0.0489  0.0766  0.0280
    1W        W29494  11.841   3.547   0.435 -0.2579 -0.2316  0.0110
    1W        W29495  12.055  14.474   9.605 -0.4239  0.0077  0.0282
    1W        W29496  15.251  15.878   9.626 -0.2354 -0.1555  0.1097
    1W        W29497   6.747   2.183   3.296  0.0884  0.1692  0.3657
    1W        W29498   5.845  26.667   1.514 -0.1534  0.2908  0.3508
    1W        W29499  20.544  24.339   6.921  0.1781  0.0064  0.0041
    1W        W29500  16.396  22.369   7.665 -0.0844  0.0744  0.1383
    1W        W29501  27.022   3.245   2.287 -0.1363  0.2957  0.1075
    1W        W29502  22.166  10.924   1.644 -0.0940 -0.3565  0.3908
    1W        W29503  15.348  20.373   9.445  0.1975  0.1422 -0.2139
    1W        W29504  10.009  12.358   6.960 -0.1269  0.0687 -0.0603
    1W        W29505  28.084   2.805   6.290 -0.1039  0.3708  0.3196
    1W        W29506   7.709   9.294   2.371 -0.0846 -0.4375 -0.0445
    1W        W29507  16.338   6.447   3.534  0.1240  0.3182  0.1133
    1W        W29508  22.206  26.812   7.621  0.1832  0.0282 -0.0095
    1W        W29509  15.137  26.182   9.071 -0.0365 -0.0200  0.0137
    1W        W29510   8.426  14.514   8.200  0.1468 -0.2969  0.2177
    1W        W29511  10.271  16.911   8.718 -0.0296  0.1938  0.0222
    1W        W29512  14.396  10.820   2.063  0.1011  0.0907 -0.1311
    1W        W29513  11.430   5.474   3.721 -0.2723 -0.0219  0.0029
    1W        W29514  18.315  17.243   7.196 -0.5203 -0.0472 -0.0568
    1W        W29515  27.254   7.031   8.337 -0.1513 -0.0371 -0.0098
    1W        W29516  17.746  27.931   3.089 -0.0927  0.0851  0.2953
    1W        W29517   8.530  28.697   0.482  0.3057 -0.0226  0.0290
    1W        W29518   1.658   1.774   6.057  0.0509 -0.1183 -0.0338
    1W        W29519   4.585   4.565   6.843  0.1718 -0.0745 -0.1290
    1W        W29520   3.267   9.960   6.209 -0.0224  0.0548 -0.3167
    1W        W29521  25.266   6.479   2.376 -0.5601 -0.0537 -0.2849
    1W        W29522  21.761   4.622   2.113  0.2018  0.0025  0.2711
    1W        W29523   5.315  26.717   8.323  0.0654 -0.1570 -0.1401
    1W        W29524   5.481   3.297   1.679  0.0118 -0.2488  0.1229
    1W        W29525  17.867  27.381   2.506  0.0012 -0.0323 -0.0999
    1W        W29526   1.418   0.428   6.208 -0.4019  0.1010  0.0492
    1W        W29527  15.614   1.719   1.004 -0.0477 -0.2023 -0.0923
    1W        W29528  11.706  28.028   2.228  0.3051  0.1749  0.2423
    1W        W29529  23.443  21.173   1.118 -0.1269  0.3233 -0.1513
    1W        W29530  18.121  15.475   9.007  0.1293  0.0386  0.1959
    1W        W29531  12.784  27.844   3.191 -0.0642 -0.3977 -0.2478
    1W        W29532   9.891  24.572   2.526 -0.4043 -0.1141 -0.3736
    1W        W29533  14.270  13.428   8.599 -0.0075  0.1452  0.0054
    1W        W29534  24.260   7.854   2.598  0.1386  0.0445 -0.0294
    1W        W29535   5.160  20.033   0.034 -0.0868  0.1297 -0.0731
    1W        W29536   4.441   2.139   0.822  0.0306  0.0267  0.0107
    1W        W29537   5.760   7.532   2.091 -0.2754 -0.2072  0.1407
    1W        W29538   3.844  22.502   8.404  0.0559 -0.1638  0.1053
    1W        W29539  15.834   3.713   0.660 -0.1752 -0.2279 -0.1757
    1W        W29540  21.861  20.382   0.070 -0.0670 -0.0229 -0.0580
    1W        W29541   1.434  14.948   1.185 -0.2159  0.0592  0.0032
    1W        W29542  26.939   4.848   6.871  0.2807 -0.0519 -0.0685
    1W        W29543   0.485   8.590   0.133  0.0722  0.0460  0.0893
    1W        W29544  14.201  24.678   7.322 -0.0375 -0.2987  0.2275
    1W        W29545  22.952   0.414   0.546 -0.2337  0.2003 -0.1514
    1W        W29546   6.205   5.846   6.699 -0.0272  0.3853  0.0452
    1W        W29547  23.415   5.945   2.539 -0.3726 -0.3875 -0.2184
    1W        W29548  22.375   8.752   1.708  0.1390  0.1754 -0.0031
    1W        W29549  19.823  23.868   7.937 -0.1092 -0.0505 -0.3141
    1W        W29550   2.428   2.699   1.127  0.1738  0.5381  0.3268
    1W        W29551   7.729  24.890   1.419 -0.1968 -0.1248 -0.1328
    1W        W29552  16.393   5.142   2.167  0.1240  0.0150  0.1323
    1W        W29553   9.695  14.472   9.613 -0.1111 -0.1304  0.2447
    1W        W29554  27.870  23.858   2.069 -0.1119 -0.2223  0.4597
    1W        W29555  13.155   2.357   7.388  0.0019  0.2539 -0.2111
    1W        W29556   4.223  23.266   1.550  0.2993 -0.0915  0.0119
    1W        W29557  23.293  18.837   7.877 -0.0232 -0.1626 -0.3259
    1W        W29558  28.493   9.064   8.143 -0.3208  0.0889 -0.1220
    1W        W29559  10.730  12.025   1.621  0.3787  0.0074  0.0619
    1W        W29560  14.770  27.110   3.922  0.3514  0.1846 -0.0799
    1W        W29561  12.848   2.844   0.158 -0.0915 -0.1436 -0.0217
    1W        W29562  22.763   0.068   2.040 -0.0098 -0.1466  0.3494
    1W        W29563  19.516   9.189   1.170  0.0866 -0.2268  0.3267
    1W        W29564   6.650   5.335   1.922 -0.2943  0.0754 -0.2483
    1W        W29565   3.392   6.070   1.233 -0.0258 -0.0100 -0.5604
    1W        W29566  19.112  14.722   1.162  0.1268 -0.0874  0.2640
    1W        W29567   0.870  13.113   1.733  0.3032  0.3162  0.0478
    1W        W29568  19.970  20.671   1.407  0.1367 -0.0082 -0.0068
    1W        W29569  14.766   8.907   0.116  0.0459  0.0359 -0.0788
    1W        W29570  20.625  24.007   6.178 -0.2175  0.1680  0.1007
    1W        W29571  13.368  27.038   9.321  0.1729  0.2630  0.0036
    1W        W29572  21.061  28.806   8.364 -0.1302  0.0985  0.2655
    1W        W29573   6.198   9.168   9.331 -0.0615  0.1990 -0.0854
    1W        W29574  14.418   1.568   7.981  0.1033  0.2302  0.1327
    1W        W29575  12.512  23.569   9.649  0.0236  0.1702 -0.2921
    1W        W29576   1.750  23.573   6.272  0.0148  0.2084 -0.0729
    1W        W29577  25.209  26.764   7.484 -0.0693 -0.0838 -0.2846
    1W        W29578   9.356  14.311   9.282 -0.1674 -0.1233  0.0384
    1W        W29579  18.799   9.108   2.198 -0.0263 -0.3648  0.2210
    1W        W29580  28.658   3.132   8.977 -0.2019 -0.2817  0.1539
    1W        W29581  26.895  21.483   3.056 -0.3615  0.0613  0.4262
    1W        W29582  22.087  16.962   2.013  0.1172  0.0299 -0.2356
    1W        W29583   1.034   4.115   6.713  0.3393  0.0412 -0.1195
    1W        W29584   1.596  17.372   9.387 -0.0258 -0.0222  0.2216
    1W        W29585  12.414   5.381   0.865 -0.2800  0.2284  0.4204
    1W        W29586  26.234   2.017   1.753  0.2902 -0.2099  0.2114
    1W        W29587  13.540  10.369   2.828 -0.1734 -0.1101  0.1399
    1W        W29588  27.042   0.553   7.843  0.2734 -0.0068  0.1817
    1W        W29589  13.839  27.178   7.087  0.1191  0.2195 -0.1052
    1W        W29590  14.853  15.895   7.438  0.0657  0.1088 -0.1520
    1W        W29591  27.635  14.872   8.940 -0.2818 -0.0756  0.2148
    1W        W29592   9.856  18.145   7.685  0.0330 -0.0105 -0.1284
    1W        W29593  15.522  16.370   2.172 -0.2866 -0.2480 -0.2519
    1W        W29594   8.173  22.991   6.892  0.0079  0.3980 -0.1209
    1W        W29595  19.039  15.783   8.917  0.1728 -0.1659 -0.0862
    1W        W29596  11.210  12.249   9.550 -0.0745 -0.1040 -0.2600
    1W        W29597  15.907  25.745   8.180 -0.3725  0.2215 -0.0650
    1W        W29598  13.232   0.982   0.484  0.1801 -0.0533  0.1318
    1W        W29599  23.752  19.988   0.624  0.2089  0.0425  0.0437
    1W        W29600   1.106  24.363   8.422  0.1224  0.0397 -0.1768
    1W        W29601  26.994   0.528   8.727  0.0166 -0.0058  0.0129
    1W        W29602  27.261  25.107   9.096  0.1157  0.0815 -0.0081
    1W        W29603   1.891  21.589   9.383 -0.0150 -0.1368 -0.0986
    1W        W29604   0.492   5.224   0.590 -0.2536 -0.1673 -0.0465
    1W        W29605  10.615   9.481   9.170 -0.1042 -0.1556  0.2020
    1W        W29606  15.462  28.115   9.374 -0.0558 -0.1747 -0.0827
    1W        W29607  23.490  18.450   9.451 -0.1399  0.1444 -0.3499
    1W        W29608  13.912   9.435   0.887 -0.1667 -0.2328  0.2258
    1W        W29609  27.649  24.600   8.209 -0.3662  0.1026  0.1509
    1W        W29610  12.226  27.582   0.740 -0.2842 -0.0169  0.5007
    1W        W29611  28.107   7.576   8.068  0.2193 -0.1760 -0.0595
    1W        W29612  10.889   9.775   7.726  0.1239 -0.1670  0.2772
    1W        W29613   2.373  18.634   7.865 -0.1399 -0.2428 -0.1387
    1W        W29614  14.249  11.732   2.008 -0.1174  0.2363  0.1545
    1W        W29615   1.061   4.922   9.079 -0.0089 -0.1794 -0.1616
    1W        W29616   2.460  25.924   1.886  0.1686 -0.0746  0.0612
    1W        W29617  18.653  21.292   7.708  0.4044  0.0591 -0.2214
    1W        W29618   4.054  22.933   0.251  0.0966 -0.1121 -0.0742
    1W        W29619   5.639   5.592   2.377 -0.0865  0.4234  0.1274
    1W        W29620  16.853  23.912   2.285 -0.0781 -0.1732  0.0204
    1W        W29621  17.226  21.850   0.342  0.2443 -0.0606 -0.0698
    1W        W29622  17.924   3.882   7.330 -0.0130 -0.3734 -0.2145
    1W        W29623   2.304   6.049   0.940  0.1598  0.0762  0.0704
    1W        W29624  12.214  17.393   0.286 -0.0666 -0.0072  0.4170
    1W        W29625  19.274  20.420   6.606 -0.1005 -0.2478  0.1701
    1W        W29626  27.648   3.137   0.863 -0.1189  0.2240 -0.0997
    1W        W29627  23.923  16.749   7.314 -0.0644 -0.1355  0.2375
    1W        W29628  11.744   2.124   2.978  0.0263 -0.0511 -0.0112
    1W        W29629  26.653   3.025   1.962  0.2370  0.1256  0.2013
    1W        W29630   7.189   1.886   1.141  0.3424  0.0258  0.0196
    1W        W29631   0.972   8.712   9.681  0.0005  0.1155  0.0777
    1W        W29632  14.220  20.013   0.947 -0.2580  0.3719 -0.2194
    1W        W29633   3.006  27.848   7.089  0.1540 -0.1734  0.0442
    1W        W29634   5.723   3.985   2.368  0.1449 -0.2917 -0.3106
    1W        W29635  16.812  23.268   7.662 -0.4308  0.0700  0.1526
    1W        W29636  15.037   8.881   8.094  0.0740 -0.1943 -0.1325
    1W        W29637   1.775   4.937   6.163 -0.0512  0.0354 -0.2580
    1W        W29638   4.300  11.418   6.218  0.1190  0.0389 -0.1098
    1W        W29639   6.560  18.130   7.235 -0.0395 -0.1162 -0.1282
    1W        W29640   0.965  23.250   1.885  0.0400 -0.0665  0.0769
    1W        W29641   1.621   1.182   2.245 -0.0399 -0.1087  0.1695
    1W        W29642  23.237  21.270   0.689 -0.0206 -0.0151 -0.2204
    1W        W29643  15.173   8.094   2.371  0.2866 -0.0343 -0.3010
    1W        W29644  18.210   6.736   0.856  0.0863 -0.1654 -0.0523
    1W        W29645  19.868  10.335   1.662 -0.1404 -0.0301 -0.3768
    1W        W29646   4.562  13.254   8.787  0.0630 -0.0300  0.1276
    1W        W29647  21.637  11.358   0.486 -0.0852 -0.0374  0.0002
    1W        W29648  10.048  13.390   1.463 -0.1367  0.1305 -0.0258
    1W        W29649  10.310   7.083   0.326  0.1063 -0.0138  0.0353
    1W        W29650   9.923   9.029   7.991  0.1886  0.2209  0.0523
    1W        W29651   7.001  24.505   8.403 -0.0811  0.0770  0.1403
    1W        W29652  21.515   7.716   3.323 -0.1814  0.2402 -0.0009
    1W        W29653  16.176   3.602   9.351 -0.2940 -0.2597 -0.1114
    1W        W29654  10.512  28.173   9.226 -0.0203  0.1462 -0.0501
    1W        W29655  22.583  20.666   7.285 -0.0897 -0.0599 -0.0673
    1W        W29656   8.771  27.406   0.280 -0.1451  0.1256  0.2685
    1W        W29657  21.872  12.735   8.321 -0.2485 -0.0977  0.2666
    1W        W29658  15.721  16.488   1.039 -0.0293  0.1679  0.2336
    1W        W29659  28.780  27.486   6.947 -0.1523  0.2296 -0.1114
    1W        W29660  17.544  17.536   6.838 -0.0385 -0.0652  0.1829
    1W        W29661   4.201  20.615   1.181  0.1723 -0.2377  0.0072
    1W        W29662  19.943  11.791   0.961  0.0167  0.0388 -0.0743
    1W        W29663  27.564  14.752   1.187 -0.0772 -0.3063  0.0628
    1W        W29664   3.996  29.357   2.193  0.2520 -0.0102  0.0271
    1W        W29665  12.559   9.041   7.114  0.3302 -0.0492 -0.2462
    1W        W29666   6.650  19.456   6.231 -0.2570  0.0302 -0.0761
    1W        W29667  10.475   4.876   3.868  0.0949  0.1248 -0.1056
    1W        W29668   3.037  17.748   0.063  0.0852  0.1164 -0.2075
    1W        W29669  11.970   1.187   9.247 -0.1206  0.1699 -0.1801
    1W        W29670   6.891  11.235   0.663  0.2448 -0.0912 -0.0231
    1W        W29671  15.021  14.575   9.180  0.1984 -0.0350 -0.0942
    1W        W29672   7.534  21.722   7.101  0.2672 -0.0530 -0.2631
    1W        W29673  16.709  10.837   1.276  0.2217  0.1026 -0.0498
    1W        W29674  11.006  12.715   8.070 -0.3090 -0.0570 -0.2501
    1W        W29675   6.391  27.354   8.780 -0.0567  0.1172  0.0122
    1W        W29676  19.306  23.822   1.788  0.1560 -0.4807 -0.2977
    1W        W29677   0.733  28.637   0.033  0.0834  0.0676 -0.1381
    1W        W29678  17.632   3.627   3.209 -0.1131 -0.1838 -0.1796
    1W        W29679   2.218   8.575   7.125 -0.1202  0.3282  0.0352
    1W        W29680   2.548  25.220   3.140 -0.1269 -0.1511 -0.1983
    1W        W29681   8.992   8.184   1.121  0.1346 -0.1548  0.2077
    1W        W29682  13.642  13.679   1.019  0.1494  0.3044 -0.1029
    1W        W29683  26.063  13.659   8.737 -0.1058 -0.1716 -0.1254
    1W        W29684   1.535  24.783   6.730  0.2714 -0.2717  0.3197
    1W        W29685  17.040  22.655   2.281 -0.3300 -0.0294  0.1728
    1W        W29686  25.480  23.719   2.679 -0.0919  0.0526 -0.1501
    1W        W29687  20.174  16.490   8.533  0.3394  0.0928  0.2592
    1W        W29688  28.353  18.752   8.983 -0.1976 -0.0608  0.1480
    1W        W29689   3.655  29.089   8.047  0.1706  0.4452 -0.2135
    1W        W29690  14.231  19.285   2.429 -0.4458  0.0688 -0.3456
    1W        W29691   2.636  18.292   9.043  0.5584  0.0990  0.0400
    1W        W29692  18.610   1.255   7.164  0.1660  0.3042  0.0057
    1W        W29693   7.746  23.874   1.046 -0.1588 -0.0526 -0.2203
    1W        W29694   4.311  10.139   9.625 -0.0704 -0.0709  0.2309
    1W        W29695  21.924  16.493   0.149  0.0447  0.4517 -0.1254
    1W        W29696   7.287  21.342   7.351  0.2311  0.3279  0.0844
    1W        W29697  29.233  22.857   0.621  0.0130  0.0145 -0.2457
    1W        W29698  22.521  27.350   2.643  0.2875  0.3181 -0.0704
    1W        W29699  24.050  12.880   8.410 -0.0039  0.1084  0.1160
    1W        W29700  25.287   0.502   1.039  0.0668  0.1621  0.0263
    1W        W29701   5.486  26.729   1.077  0.1207  0.0247  0.1996
    1W        W29702  20.866   4.455   8.597  0.0819 -0.0920  0.3353
    1W        W29703  11.878  10.157   0.083 -0.1525  0.0844  0.0116
    1W        W29704   0.489  17.072   2.382 -0.0822  0.1062 -0.0187
    1W        W29705   3.740  10.873   2.389  0.4623  0.1339 -0.2446
    1W        W29706   7.587  27.996   1.408  0.4573  0.4154 -0.0373
    1W        W29707  26.556  15.873   9.674  0.2174 -0.1042  0.1609
    1W        W29708   9.359   7.846   2.990 -0.2663  0.0943  0.1859
    1W        W29709  28.620  16.686   8.447 -0.0954  0.0302  0.1160
    1W        W29710   1.480  17.349   0.868  0.1178  0.0043  0.0307
    1W        W29711  14.452  20.417   9.151 -0.3302  0.3957 -0.0812
    1W        W29712  27.183  13.014   6.154  0.1389  0.0525  0.2006
    1W        W29713  27.656  13.919   7.430  0.2102  0.0718  0.0167
    1W        W29714  12.669  14.558   7.065  0.0170  0.2122  0.1180
    1W        W29715  12.052   5.846   0.856 -0.2447  0.0341  0.0526
    1W        W29716   3.983   5.942   7.261 -0.2237 -0.0268 -0.1073
    1W        W29717   8.959  12.718   1.907  0.1509  0.1276  0.0034
    1W        W29718  17.492   3.792   1.801 -0.0459  0.1842  0.0458
    1W        W29719  24.995  13.016   1.699  0.0268 -0.1386 -0.0885
    1W        W29720   7.231   5.238   1.203  0.2313  0.1157 -0.1412
    1W        W29721  13.934  11.111   1.528 -0.0270 -0.0770  0.2630
    1W        W29722  25.871   0.555   0.231 -0.1086 -0.1941  0.0728
    1W        W29723   6.854  21.411   0.688  0.1872 -0.2273 -0.0409
    1W        W29724  10.894  12.436   6.779  0.0849 -0.0621 -0.3484
    1W        W29725   0.609   6.638   7.056 -0.0993  0.1139 -0.3854
    1W        W29726   5.775  17.424   1.956 -0.1337  0.1505 -0.5060
    1W        W29727   7.862   5.007   9.446 -0.1665  0.1478 -0.0204
    1W        W29728  22.329  14.076   6.655  0.0485  0.4075 -0.2324
    1W        W29729  21.999  26.361   6.224 -0.0319 -0.1364  0.2194
    1W        W29730  14.168   9.028   8.610  0.0933 -0.4111  0.3849
    1W        W29731  15.363   2.946   7.956 -0.0545 -0.1367 -0.0548
    1W        W29732  22.432  16.308   7.623  0.1336 -0.0369 -0.2913
    1W        W29733  28.729  28.774   0.961 -0.1785 -0.0459  0.2721
    1W        W29734   6.905  27.834   7.618 -0.1419  0.0174  0.4700
    1W        W29735  27.357   2.508   6.818 -0.0941  0.1242 -0.0094
    1W        W29736  20.416  23.215   1.815  0.1104  0.2930 -0.0507
    1W        W29737  26.860   6.665   8.180 -0.4566  0.0930 -0.0609
    1W        W29738  25.386   6.230   9.363  0.2049  0.1045 -0.2533
    1W        W29739  10.873  18.299   7.508  0.1135 -0.3268 -0.0362
    1W        W29740  17.298  17.744   9.084  0.1958 -0.1371 -0.5868
    1W        W29741   4.066  25.100   0.672  0.2844 -0.3649  0.1383
    1W        W29742  20.657   0.989   2.048 -0.0461  0.0436  0.0721
    1W        W29743  15.401  19.382   2.431  0.1122 -0.1137 -0.1166
    1W        W29744   6.155   0.992   7.482 -0.2901 -0.2583  0.2279
    1W        W29745  17.777  19.843   9.240 -0.0421 -0.2377  0.1600
    1W        W29746   5.525   4.539   8.398 -0.1437 -0.0516 -0.3258
    1W        W29747   3.008  18.382   5.624 -0.1783 -0.0627 -0.2846
    1W        W29748   7.062   9.918   6.898 -0.0398  0.1992 -0.2438
    1W        W29749   2.112  20.356   2.151  0.0677  0.0272 -0.1705
    1W        W29750   8.710  18.866   8.944 -0.2184  0.0702  0.1585
    1W        W29751  10.006   3.003   8.666  0.1060 -0.1559 -0.0301
    1W        W29752  22.177   1.435   2.181 -0.2141  0.1571 -0.1867
    1W        W29753  29.299  11.506   1.373  0.0625  0.0536  0.0520
    1W        W29754  16.975  28.370   6.939 -0.1412 -0.0594  0.0782
    1W        W29755   8.242  16.054   1.636 -0.2358 -0.0237 -0.2843
    1W        W29756  15.633  24.749   2.424  0.0251  0.1931  0.0468
    1W        W29757   6.973  24.184   7.551  0.0876 -0.1197  0.2298
    1W        W29758  24.918  11.082   7.309  0.1635  0.1283  0.2146
    1W        W29759  28.447  13.654   2.129  0.0254 -0.1425 -0.1892
    1W        W29760  12.876  26.078   2.077 -0.1495 -0.1462 -0.4702
    1W        W29761  19.123   7.114   1.364  0.0815 -0.1372 -0.0844
    1W        W29762  10.331   3.916   8.568 -0.0819 -0.0196 -0.1146
    1W        W29763   4.500  27.491   1.926 -0.1034 -0.0661  0.2259
    1W        W29764  22.508  16.467   8.605 -0.0555  0.2113  0.1167
    1W        W29765  15.348  19.254   1.517 -0.0794 -0.0822  0.2312
    1W        W29766  24.642   5.366   9.341 -0.1161 -0.0993  0.0640
    1W        W29767  11.897  18.077   7.692  0.0120  0.0479  0.0060
    1W        W29768   0.287  15.671   8.950  0.0481  0.3444  0.0390
    1W        W29769  27.556   6.902   6.052  0.3981 -0.0892 -0.0246
    1W        W29770  13.820  19.178   1.347  0.1244  0.0600 -0.2328
    1W        W29771   4.094  12.421   8.289  0.0653 -0.2059  0.1487
    1W        W29772  14.435  10.127   0.382  0.2361 -0.0100 -0.2885
    1W        W29773   4.425   2.146   7.178 -0.2129  0.1508  0.0055
    1W        W29774   0.895   3.879   0.909 -0.2240 -0.1065 -0.0425
    1W        W29775  15.379  21.027   6.966  0.1136 -0.0125 -0.3961
    1W        W29776  28.714  15.248   0.973 -0.0836 -0.1306 -0.0790
    1W        W29777  22.290  12.556   7.455 -0.2535  0.1991  0.0634
    1W        W29778   6.503  12.675   8.100  0.0413  0.0808 -0.0156
    1W        W29779  21.125  18.238   8.830 -0.0357  0.2476  0.1534
    1W        W29780  15.423   0.936   1.319 -0.1662  0.0965  0.1523
    1W        W29781   9.430   1.658   7.683 -0.1749  0.0434  0.2912
    1W        W29782  27.383  16.601   2.153  0.0823 -0.1709 -0.1141
    1W        W29783  27.097  13.559   7.891 -0.0717 -0.0933  0.3155
    1W        W29784  20.329  27.687   1.451  0.1931 -0.0994  0.0212
    1W        W29785  10.714  14.583   8.150 -0.0034  0.1122 -0.2746
    1W        W29786   2.451  19.251   2.317 -0.0233  0.0830  0.0055
    1W        W29787  21.947  11.953   8.986  0.0614  0.2352 -0.3103
    1W        W29788   7.732  25.536   1.245  0.0932 -0.5132 -0.0309
    1W        W29789   3.386   7.071   2.086  0.0288  0.3550 -0.0084
    1W        W29790  11.612  14.379   0.819  0.1597  0.0642  0.1011
    1W        W29791   0.176   5.080   9.657  0.5311  0.2299  0.2875
    1W        W29792  17.135  19.988   1.835 -0.0473 -0.0945  0.3028
    1W        W29793  21.392  18.532   7.649  0.2222  0.0470 -0.1891
    1W        W29794  25.087   2.859   1.723  0.3128 -0.2573 -0.0491
    1W        W29795   3.644  20.491   0.320 -0.0839  0.0919  0.1164
    1W        W29796  10.818  27.650   7.736 -0.0058  0.3072  0.0756
    1W        W29797   7.903  19.538   9.147  0.1387  0.1353  0.3405
    1W        W29798   7.630  26.713   8.403 -0.0392  0.0652 -0.0953
    1W        W29799  20.455   4.457   7.730  0.3195  0.1540 -0.0803
    1W        W29800   3.627  13.306   8.508  0.3629  0.0663  0.2089
    1W        W29801   5.277  12.951   0.510  0.2271  0.0578 -0.2052
    1W        W29802   7.815  20.257   6.127  0.4103  0.1417 -0.2077
    1W        W29803  19.826   0.663   0.946 -0.2031  0.0537  0.0767
    1W        W29804  14.113   3.064   4.328  0.1443  0.2830 -0.1636
    1W        W29805   6.486  25.972   8.781 -0.0885 -0.3645 -0.0607
    1W        W29806   6.008  19.151   2.493  0.2348  0.4281  0.0577
    1W        W29807  26.916   5.731   6.565  0.0933  0.0517  0.1395
    1W        W29808  14.215   8.263   9.280 -0.1322  0.0257  0.1783
    1W        W29809  12.980  24.343   8.003 -0.0633 -0.2073 -0.0257
    1W        W29810   1.479  12.260   3.197  0.1400  0.0217 -0.0602
    1W        W29811  22.174   9.337   0.551 -0.1142 -0.0362  0.1487
    1W        W29812   9.651  26.973   9.247 -0.3432  0.0101  0.0253
    1W        W29813   8.215  13.685   7.088 -0.0752 -0.2340 -0.3042
    1W        W29814   5.090   5.584   2.486 -0.1806  0.0966  0.5220
    1W        W29815   8.193  17.940   8.588  0.1366  0.0604  0.1123
    1W        W29816   4.753  28.968   0.690 -0.0106 -0.0593  0.3426
    1W        W29817   0.027   6.545   6.961  0.3867  0.4262 -0.3540
    1W        W29818   6.187  13.131   0.121 -0.0813 -0.1682  0.0378
    1W        W29819  23.883   8.445   8.811 -0.0699 -0.1174  0.2183
    1W        W29820  19.513   5.150   0.975 -0.1871  0.2243  0.2227
    1W        W29821  15.208  24.288   1.135 -0.1795 -0.2090 -0.0610
    1W        W29822  26.059   5.055   0.442 -0.1658 -0.0695 -0.0049
    1W        W29823   7.645   6.060   9.211 -0.2783  0.0678  0.0612
    1W        W29824   0.964   2.219   6.792  0.2836 -0.1075  0.3005
    1W        W29825  19.731  22.812   9.579  0.0183  0.0184  0.1340
    1W        W29826  26.299  14.778   8.673  0.0973 -0.1874 -0.0476
    1W        W29827  13.555  28.817   4.180 -0.1686 -0.0583 -0.0263
    1W        W29828  12.086  18.810   7.225  0.0367  0.1146 -0.2985
    1W        W29829  24.444  23.233   7.582 -0.2138 -0.0359  0.0414
    1W        W29830   2.706  20.875   0.363 -0.0205 -0.2925 -0.4056
    1W        W29831   4.387   1.229   3.891 -0.1749 -0.0836 -0.1773
    1W        W29832  28.287  19.912   8.582  0.3329  0.3399  0.1157
    1W        W29833   1.929   8.678   2.430 -0.3776  0.0295 -0.0101
    1W        W29834   9.980   2.668   7.698  0.2767 -0.0844  0.1217
    1W        W29835  27.522   9.382   9.165  0.3262  0.0341  0.0466
    1W        W29836  12.562   4.217   9.235 -0.3035 -0.2217 -0.0427
    1W        W29837  23.146   6.281   0.524  0.0409  0.0678 -0.1180
    1W        W29838   7.163  20.602   0.008  0.2354 -0.1323 -0.1849
    1W        W29839   2.000  27.141   6.975 -0.0390  0.0729  0.4600
    1W        W29840   2.072  12.621   2.594 -0.0034  0.0238  0.0213
    1W        W29841   0.907  21.520   0.819  0.3898  0.0308 -0.4368
    1W        W29842  14.286  16.860   9.580  0.2248  0.0794 -0.2263
    1W        W29843  24.694  24.395   7.435  0.2987  0.2753  0.0203
    1W        W29844  11.837  29.032   3.580  0.0982 -0.1574 -0.1729
    1W        W29845  16.647   9.782   2.392  0.0733  0.2056  0.3951
    1W        W29846   2.746  22.085   7.401 -0.2267  0.0185  0.0298
    1W        W29847  16.368   4.078   9.048 -0.0286 -0.3932  0.1376
    1W        W29848   0.376   2.233   0.268  0.3093  0.0204  0.0975
    1W        W29849   6.151  12.490   1.968  0.2596  0.0071  0.2086
    1W        W29850  28.455  25.956   2.670 -0.1255  0.1363  0.2316
    1W        W29851  24.225  16.639   2.239 -0.4088 -0.3010  0.2197
    1W        W29852  16.790  11.103   0.405 -0.1533  0.0539 -0.0640
    1W        W29853   0.334  20.566   1.991 -0.1196  0.1115  0.0968
    1W        W29854  22.846   7.625   1.799  0.0892 -0.1235  0.1452
    1W        W29855  12.596  22.718   8.544  0.2404  0.3639  0.2336
    1W        W29856   7.357  24.030   6.100 -0.1506  0.1074 -0.1649
    1W        W29857  25.922   5.011   2.966  0.0485  0.1928  0.1999
    1W        W29858  21.494   7.393   7.860  0.1789  0.1082 -0.1162
    1W        W29859  19.697   1.762   8.681  0.2441  0.0266  0.0996
    1W        W29860  23.984  27.988   0.717  0.0183  0.2164 -0.0305
    1W        W29861  13.370  27.084   8.649  0.0192 -0.1461 -0.0707
    1W        W29862  18.559  27.944   1.501  0.0460  0.1080  0.1509
    1W        W29863  23.480   0.217   0.613  0.2470 -0.4411  0.0057
    1W        W29864   4.985  17.141   2.567  0.0522 -0.2529 -0.1860
    1W        W29865  12.460  12.242   8.844  0.0763  0.1138  0.0183
    1W        W29866  22.786   7.977   7.585 -0.0228 -0.0100 -0.0033
    1W        W29867  11.206   3.894   9.197  0.1459  0.0173 -0.1710
    1W        W29868  11.170   4.120   3.555  0.2183  0.0572  0.0762
    1W        W29869  24.319  16.363   0.716  0.5070 -0.1539 -0.1303
    1W        W29870  19.363  28.657   9.268 -0.3215  0.0051  0.1067
    1W        W29871   0.304  20.985   6.377 -0.1027  0.0501  0.0638
    1W        W29872  13.055  23.195   3.480  0.0327  0.3697  0.1835
    1W        W29873   7.812  12.518   9.288  0.0837 -0.0396  0.1529
    1W        W29874  25.327  13.075   1.071  0.1022  0.0776  0.3674
    1W        W29875   3.390  10.686   8.352 -0.0052 -0.1391 -0.0621
    1W        W29876   1.807   1.567   2.026  0.2082  0.1486 -0.0496
    1W        W29877  28.397  12.132   3.543 -0.0952 -0.3952 -0.1799
    1W        W29878  27.577  24.957   0.837 -0.1508 -0.0038  0.0819
    1W        W29879   6.403  11.572   9.538 -0.1664  0.2619  0.2797
    1W        W29880  12.953  28.860   2.462 -0.1265 -0.1051 -0.3767
    1W        W29881  15.362  16.202   9.262 -0.0210  0.0370 -0.0741
    1W        W29882  11.741   6.781   1.218 -0.0372  0.3942 -0.0921
    1W        W29883  18.137  21.995   7.206  0.1715 -0.3171  0.1232
    1W        W29884  14.935   8.376   7.912 -0.0147  0.3085 -0.1091
    1W        W29885  13.646   1.948   0.153  0.1081 -0.0062 -0.0885
    1W        W29886  21.001  13.009   1.410 -0.0406 -0.0180  0.3024
    1W        W29887  11.339  23.087   6.266  0.1867 -0.2133  0.2390
    1W        W29888  27.437  11.166   8.826  0.1942 -0.1283  0.1148
    1W        W29889  20.197  15.200   1.809 -0.1265  0.0040 -0.0497
    1W        W29890  25.282  26.780   9.649  0.0393 -0.4371  0.0383
    1W        W29891   0.347   3.745   8.860  0.3710 -0.1747  0.1553
    1W        W29892  12.509  12.117   2.222  0.3452 -0.0410 -0.0931
    1W        W29893  11.513  12.286   0.347  0.0411  0.1421 -0.1001
    1W        W29894   0.180  25.808   1.906  0.0864 -0.1895  0.0680
    1W        W29895  24.174   8.053   6.813 -0.2380  0.0226 -0.1197
    1W        W29896   1.461  27.535   0.480  0.1157 -0.2380  0.0062
    1W        W29897  19.432   0.427   2.299  0.0349  0.3069  0.0928
    1W        W29898  23.838  27.681   2.570  0.2888  0.1092 -0.0920
    1W        W29899  24.892  10.674   8.268  0.0152 -0.3736 -0.0746
    1W        W29900  14.953  29.350   8.764 -0.4260 -0.1018 -0.3701
    1W        W29901  10.541  11.345   9.244 -0.1754 -0.3030 -0.0080
    1W        W29902  12.660  27.267   8.062 -0.0839 -0.2302 -0.0592
    1W        W29903  19.446  25.333   0.319  0.2579  0.0723  0.2180
    1W        W29904  20.796  29.228   2.314  0.0648 -0.0268 -0.1716
    1W        W29905   3.297  24.994   9.111  0.1308  0.1284  0.3167
    1W        W29906  24.601  10.074   0.444 -0.4303  0.3587 -0.1598
    1W        W29907  24.419   7.155   1.683  0.1891 -0.2822  0.1742
    1W        W29908  26.327  13.921   6.373 -0.0374 -0.1416  0.0099
    1W        W29909  23.966  20.014   8.621  0.2632 -0.0430 -0.3610
    1W        W29910  26.658  25.725   9.634  0.1452 -0.1605 -0.0706
    1W        W29911   9.817  21.155   0.032 -0.0686 -0.2132  0.1176
    1W        W29912   1.143   7.829   7.753 -0.0815  0.0690  0.0431
    1W        W29913  26.238  19.812   8.604  0.2896 -0.0593 -0.0474
    1W        W29914  15.887  24.625   9.103 -0.1380  0.3241 -0.4275
    1W        W29915  22.880  17.921   2.316 -0.3083 -0.1340 -0.1215
    1W        W29916   2.338  23.658   8.573  0.1101 -0.1597 -0.1639
    1W        W29917   2.598  19.496   7.623 -0.0534 -0.1483 -0.0028
    1W        W29918   5.074   9.033   2.184  0.0917  0.0419  0.0013
    1W        W29919   6.645  16.220   7.081 -0.0998 -0.0275 -0.1859
    1W        W29920   6.456  28.339   0.124 -0.0780  0.0301 -0.0520
    1W        W29921   9.509  12.501   9.227  0.3445  0.0029  0.0242
    1W        W29922  21.968   3.687   2.353  0.2847  0.1251 -0.0056
    1W        W29923  10.454   9.748   2.611 -0.0282  0.2823  0.0656
    1W        W29924  16.005  25.833   9.483  0.2918  0.0142 -0.3050
    1W        W29925  13.273  21.782   9.363  0.1623 -0.1596 -0.0363
    1W        W29926   8.030  23.314   0.446  0.2435  0.2907  0.4278
    1W        W29927   9.442  11.144   2.338 -0.1163  0.0568  0.0117
    1W        W29928   8.998  28.477   1.210  0.2937  0.1541  0.1162
    1W        W29929  19.233  20.121   6.990 -0.1625  0.2800 -0.1194
    1W        W29930  27.278  15.255   7.635  0.0257  0.5693 -0.0405
    1W        W29931  16.633   4.877   6.752  0.1793  0.0764  0.0128
    1W        W29932  16.351  12.891   0.151 -0.1952  0.0972  0.1854
    1W        W29933  13.797   1.085   2.689  0.3208  0.0958  0.1871
    1W        W29934   3.168   8.788   6.737  0.0825  0.1253  0.3471
    1W        W29935  25.736   9.965   2.982 -0.0074 -0.0523 -0.1813
    1W        W29936  27.003  23.977   0.898 -0.0305  0.0718 -0.0446
    1W        W29937   2.185   8.780   2.021 -0.4531 -0.0583  0.0724
    1W        W29938  23.440  24.387   9.236  0.1502 -0.3667 -0.4197
    1W        W29939  10.255  25.127   8.694 -0.0348  0.2759 -0.1077
    1W        W29940  13.360   3.127   9.146  0.0801 -0.0169 -0.0738
    1W        W29941  26.599   0.619   6.590 -0.3199 -0.1422  0.0036
    1W        W29942  23.231   8.742   7.585 -0.1398  0.0362 -0.1299
    1W        W29943   9.253  12.310   1.216 -0.1229 -0.3012  0.0790
    1W        W29944   1.723  25.026   0.860 -0.1591  0.0108  0.2229
    1W        W29945  26.802  25.298   7.650 -0.1970  0.2196 -0.3764
    1W        W29946  22.102  21.797   8.216 -0.0908 -0.4427  0.0868
    1W        W29947  15.584  24.033   3.116  0.4570  0.0396  0.2949
    1W        W29948  24.275  25.295   1.615  0.0391 -0.2121 -0.1390
    1W        W29949   8.265  11.901   9.632 -0.0520  0.0244 -0.1301
    1W        W29950   1.392  28.694   7.186  0.2055 -0.0595  0.0999
    1W        W29951  13.143  28.981   8.645  0.1431 -0.1470 -0.2081
    1W        W29952  12.298   4.876   1.974  0.2231 -0.1332 -0.0690
    1W        W29953  12.787  23.658   1.738  0.0384 -0.1553 -0.1220
    1W        W29954  21.807  12.447   7.597  0.0651  0.2324 -0.2126
    1W        W29955  13.513   9.375   3.177 -0.1619  0.1964 -0.1063
    1W        W29956  16.922  21.039   3.162 -0.1854 -0.2661 -0.0072
    1W        W29957  15.631  12.075   1.732  0.1311 -0.4174 -0.2106
    1W        W29958  13.370  10.734   8.407  0.1152 -0.1657  0.0273
    1W        W29959   9.780   4.847   1.776 -0.0556 -0.4335 -0.1696
    1W        W29960  27.418  18.124   8.490 -0.0212 -0.0606  0.3485
    1W        W29961  12.172  12.027   9.290 -0.0084  0.0824 -0.3511
    1W        W29962  23.845  24.912   1.612  0.2022  0.3774 -0.0783
    1W        W29963  10.964   7.589   9.423 -0.1373  0.2635 -0.3967
    1W        W29964  15.421  11.533   7.708 -0.0549  0.0612 -0.0034
    1W        W29965  10.181  15.910   1.528 -0.1540 -0.0175 -0.0321
    1W        W29966   0.005  14.409   6.251 -0.1280  0.0531 -0.1716
    1W        W29967  28.462   8.088   6.708 -0.0957  0.1542 -0.2959
    1W        W29968  21.858   9.034   2.427 -0.3358 -0.0722  0.0830
    1W        W29969   7.082  16.166   6.781  0.1533 -0.2328  0.0030
    1W        W29970  27.891   2.281   6.549  0.1614 -0.0924 -0.1950
    1W        W29971  29.318  12.533   0.521  0.0450  0.3234  0.2523
    1W        W29972  20.245  23.268   8.264  0.2553 -0.0923 -0.0422
    1W        W29973   7.733  21.664   6.610  0.3092  0.0122  0.1104
    1W        W29974   3.839   7.168   7.412 -0.0965 -0.1245  0.3069
    1W        W29975  28.816  18.385   7.262 -0.2730 -0.3294 -0.0093
    1W        W29976  28.802   1.982   0.197  0.1377  0.0176 -0.0242
    1W        W29977   2.712  20.365   8.022 -0.1298  0.0209 -0.0454
    1W        W29978   0.647  27.270   1.810  0.2278  0.0662  0.2064
    1W        W29979   8.302   9.327   0.408  0.1404  0.1095 -0.0431
    1W        W29980   8.727  28.563   2.715  0.0749  0.1979 -0.1746
    1W        W29981  24.283  12.488   1.892  0.1405  0.1074 -0.2863
    1W        W29982  12.908   9.964   7.320  0.1463 -0.0613 -0.3223
    1W        W29983  21.799   6.947   2.719  0.0118 -0.1081  0.0257
    1W        W29984  13.482  20.329   7.916  0.1478  0.0775 -0.4839
    1W        W29985   9.576  14.919   8.022 -0.0780 -0.3197 -0.1857
    1W        W29986  12.810   5.855   7.883  0.0677  0.1009  0.2919
    1W        W29987  27.897  25.603   7.421  0.1833 -0.1969 -0.1465
    1W        W29988  10.521   9.738   1.353 -0.1991 -0.3098  0.0447
    1W        W29989  20.650  28.372   2.815  0.1746 -0.3600 -0.4067
    1W        W29990  23.585   1.385   8.914  0.4550 -0.2484  0.1662
    1W        W29991   4.418  28.951   3.056  0.2026  0.2860  0.0259
    1W        W29992  20.091  16.935   8.381  0.0097 -0.0003  0.1800
    1W        W29993   5.764  25.396   1.735 -0.0719 -0.1248  0.3500
    1W        W29994   3.399  23.869   1.570 -0.1442 -0.0868 -0.2758
    1W        W29995  23.737  27.495   9.653 -0.3682 -0.1025  0.1435
    1W        W29996  14.009   0.951   0.853 -0.3913  0.0327  0.0043
    1W        W29997  29.237  22.969   7.469  0.1473  0.1158 -0.0869
    1W        W29998  26.036   6.746   7.214 -0.1733  0.2285 -0.1377
    1W        W29999  12.756  21.024   1.345 -0.2669 -0.2337 -0.1359
    1W        W30000  24.877  14.618   2.170 -0.2911 -0.1973  0.0378
    1W        W30001   7.447  20.275   8.049  0.1187 -0.6126  0.0319
    1W        W30002  20.807  28.465   8.719 -0.1943 -0.3074  0.2443
    1W        W30003   0.875   8.555   6.668 -0.3392  0.3474 -0.1234
    1W        W30004  27.023  18.206   8.121  0.2584 -0.2056 -0.1639
    1W        W30005   1.196  27.048   2.594 -0.1769  0.0977  0.0704
    1W        W30006   7.653  27.739   2.943  0.0577 -0.0304 -0.0393
    1W        W30007  15.822  26.932   1.250  0.1839  0.1173 -0.0486
    1W        W30008   4.541  12.094   2.471 -0.1892 -0.1934 -0.0624
    1W        W30009   3.282  14.637   2.302 -0.3941 -0.3029  0.1826
    1W        W30010  23.148  29.067   1.155  0.1834  0.3340  0.1651
    1W        W30011  27.969   8.347   9.504  0.0154 -0.1399  0.3263
    1W        W30012  26.379  25.027   7.732  0.0667  0.1950  0.1123
    1W        W30013  23.519  27.740   6.839  0.2068 -0.2345  0.1404
    1W        W30014  26.426  21.832   8.221 -0.0645 -0.0385 -0.0202
    1W        W30015  20.801  25.918   1.855  0.1917 -0.3446  0.1303
    1W        W30016   2.551  10.132   2.467 -0.0465  0.2458 -0.0898
    1W        W30017  29.228  13.224   1.871  0.4258 -0.0659 -0.2939
    1W        W30018  24.253  22.301   7.491 -0.0537 -0.2501  0.0092
    1W        W30019   1.994  20.392   6.334  0.0618 -0.1164  0.2045
    1W        W30020  16.237  18.348   1.539  0.0530 -0.1455 -0.4416
    1W        W30021  22.847   4.372   8.802 -0.1145  0.0106 -0.0501
    1W        W30022  20.843  10.268   0.732 -0.2137  0.0829 -0.2217
    1W        W30023  24.811   7.667   1.335  0.1797  0.1223 -0.2861
    1W        W30024  28.691  16.357   1.083 -0.0469  0.0337  0.0598
    1W        W30025  28.341  21.780   6.885  0.1295  0.3658 -0.1539
    1W        W30026  12.832  16.308   7.495 -0.5783  0.2281 -0.0822
    1W        W30027  17.158   7.585   1.122  0.3538  0.0045 -0.0743
    1W        W30028  14.806  10.366   0.710 -0.1711 -0.0374  0.0516
    1W        W30029   0.903  18.413   9.563  0.2824 -0.1584 -0.0385
    1W        W30030  22.029  28.448   7.830  0.0382 -0.0706 -0.0630
    1W        W30031  14.386   9.564   0.998 -0.2013  0.3420 -0.1969
    1W        W30032  27.678  11.622   5.826  0.0057 -0.2678  0.1943
    1W        W30033  24.196   5.224   6.780 -0.2329  0.3456 -0.1051
    1W        W30034  23.471  16.053   7.496  0.0583  0.2482  0.2467
    1W        W30035   2.831  17.186   0.645  0.2494 -0.2041  0.1086
    1W        W30036  27.713  22.105   1.578 -0.2230  0.0911  0.2136
    1W        W30037  18.249  21.870   9.101  0.0747 -0.1100  0.1101
    1W        W30038   9.679   3.183   0.715 -0.2078  0.0012 -0.1427
    1W        W30039   3.072  22.398   1.126 -0.1746 -0.0302 -0.1792
    1W        W30040   6.437  19.137   9.288 -0.1121 -0.0249 -0.1382
    1W        W30041   2.143   3.523   7.443 -0.0746  0.2419 -0.0908
    1W        W30042  12.766  22.235   8.014 -0.1610  0.0698  0.2030
    1W        W30043  17.170  28.134   1.745 -0.1408  0.1666  0.0300
    1W        W30044  21.210  12.239   0.395  0.2584 -0.5219 -0.0489
    1W        W30045  25.475   3.611   0.710 -0.1084 -0.0192 -0.3263
    1W        W30046  18.497   2.207   1.068  0.0686  0.1004 -0.2413
    1W        W30047  21.104   5.122   7.639 -0.3135 -0.0594  0.1682
    1W        W30048  23.664   8.804   9.058  0.1462  0.0242  0.1241
    1W        W30049   7.977  15.204   8.914 -0.0751 -0.0649 -0.1125
    1W        W30050  27.801  10.517   8.697 -0.0390 -0.0895 -0.2914
    1W        W30051   2.578   9.687   0.829  0.0245  0.0103  0.0355
    1W        W30052  15.645  26.248   9.219 -0.0802 -0.0239 -0.0447
    1W        W30053  11.992   1.150   7.944 -0.0128 -0.0644 -0.2152
    1W        W30054  11.404   9.906   7.690 -0.2533  0.0054  0.0245
    1W        W30055  22.210  17.249   0.463 -0.1358 -0.2856 -0.1366
    1W        W30056  28.448  10.462   1.931 -0.1743  0.0631 -0.0359
    1W        W30057  12.401  13.147   2.701 -0.0735 -0.0419  0.1180
    1W        W30058  10.418   3.513   7.773  0.0234 -0.0083  0.2028
    1W        W30059  18.655   3.901   7.018 -0.3098 -0.0180  0.0374
    1W        W30060  27.672  11.006   7.205 -0.1018 -0.0770 -0.2506
    1W        W30061  16.745   6.126   0.632  0.2483 -0.0022 -0.0461
    1W        W30062  24.963  23.211   1.930 -0.2260 -0.2346  0.1717
    1W        W30063  10.535   9.823   8.562  0.1630 -0.1052  0.0183
    1W        W30064  23.825  12.122   1.798  0.0953  0.1618 -0.1465
    1W        W30065  23.305  13.253   0.090 -0.2522  0.1066 -0.1205
    1W        W30066  20.443   7.139   7.706  0.2949  0.0471 -0.3094
    1W        W30067   1.430   3.132   0.591  0.3123  0.3763 -0.1163
    1W        W30068   3.283  16.333   7.928 -0.1651  0.0301  0.0525
    1W        W30069   2.015   5.602   9.045 -0.1098 -0.0722  0.0623
    1W        W30070  16.366  24.305   2.661  0.1223 -0.3553 -0.1584
    1W        W30071  19.882   4.757   1.127  0.0621  0.1395  0.0922
    1W        W30072  16.674  15.606   1.337 -0.0930 -0.1211  0.1023
    1W        W30073  16.980  10.907   2.071 -0.0737 -0.1802 -0.3318
    1W        W30074  28.414   3.876   2.145 -0.3810 -0.2837  0.4400
    1W        W30075  22.569  27.489   6.616  0.0240 -0.1634  0.5570
    1W        W30076   7.905  16.235   6.258 -0.0079  0.1882 -0.0007
    1W        W30077  17.823  11.142   7.123  0.0488  0.1016  0.1211
    1W        W30078  23.260  21.245   8.727  0.0383  0.1672 -0.3234
    1W        W30079  18.870  27.740   0.543 -0.0572 -0.0264  0.0327
    1W        W30080  16.276  13.810   1.498  0.1664  0.1222 -0.1781
    1W        W30081  17.111   7.907   9.563 -0.2229 -0.2119  0.2829
    1W        W30082   3.562   4.572   8.587  0.1563  0.0057  0.1560
    1W        W30083   3.984   8.211   0.990  0.1049 -0.1752 -0.0607
    1W        W30084   5.041   3.218   0.984 -0.4126  0.0369 -0.1176
    1W        W30085   4.632   2.512   1.173 -0.5842  0.4345 -0.0979
    1W        W30086  13.107   3.188   0.847  0.5306  0.4753  0.0484
    1W        W30087  12.261  22.115   9.666 -0.1267  0.0752 -0.1705
    1W        W30088   4.951   1.860   7.007 -0.0416  0.1734  0.0054
    1W        W30089  20.727  20.133   1.860 -0.4514 -0.0557  0.3168
    1W        W30090  12.849   0.208   7.872  0.1027 -0.1569  0.1736
    1W        W30091   3.541   5.333   0.948  0.2971 -0.0659 -0.2754
    1W        W30092  15.308  20.721   2.354 -0.4504 -0.0755 -0.2278
    1W        W30093  29.289  14.392   1.092  0.2186 -0.1176 -0.2333
    1W        W30094  22.274  28.769   2.981 -0.0510  0.0252  0.1688
    1W        W30095  24.432  22.715   2.815  0.1882 -0.1213 -0.0862
    1W        W30096  25.922   7.432   6.988 -0.2460  0.0280  0.0845
    1W        W30097   2.884  14.235   7.255 -0.0135 -0.0527 -0.2061
    1W        W30098  16.170  18.570   2.525  0.3106 -0.2003  0.0954
    1W        W30099  27.439  14.755   6.267 -0.1716  0.3928  0.1416
    1W        W30100  19.355  11.804   2.516 -0.1205  0.1671 -0.1084
    1W        W30101  17.529  26.789   1.871  0.0483  0.0828 -0.2186
    1W        W30102  20.667  19.344   2.436 -0.1735  0.1728  0.0765
    1W        W30103  18.191  24.328   7.021  0.1855  0.3475 -0.1050
    1W        W30104   5.602   7.901   9.503 -0.1757 -0.0512 -0.2970
    1W        W30105   4.887  24.714   2.177 -0.4199 -0.0020  0.1181
    1W        W30106  17.239  19.557   7.937  0.2158  0.1938  0.0414
    1W        W30107  21.503  27.511   9.069  0.1788 -0.2900  0.1048
    1W        W30108  14.587   5.147   3.303 -0.0081  0.1929 -0.0918
    1W        W30109  16.122   8.891   2.061  0.4316  0.0364 -0.3268
    1W        W30110  15.745  17.731   2.303 -0.0783  0.1109  0.0856
    1W        W30111   5.877  21.790   6.824  0.1436 -0.5568 -0.2717
    1W        W30112  20.811  25.764   0.941  0.0841 -0.0465 -0.1614
    1W        W30113  26.631  26.636   1.393  0.1501  0.3637  0.2854
    1W        W30114  12.485  16.597   2.023  0.0967 -0.0878  0.1139
    1W        W30115   6.218   1.976   0.044 -0.0597 -0.0156 -0.1546
    1W        W30116  23.223  18.937   0.553 -0.3510  0.0616  0.0632
    1W        W30117   8.416   1.319   7.804  0.0664  0.3653  0.0913
    1W        W30118   0.541  25.559   2.103 -0.0677 -0.3441 -0.0221
    1W        W30119  15.345  15.105   7.546  0.2515 -0.1170  0.0333
    1W        W30120  27.447  23.642   2.599 -0.2876 -0.0855  0.1298
    1W        W30121  10.069  14.795   9.561  0.0337 -0.0778 -0.1115
    1W        W30122  17.635   5.058   6.612  0.1922 -0.1178  0.0281
    1W        W30123   4.208   0.811   2.068  0.3131 -0.0864  0.1380
    1W        W30124   4.668  26.754   0.252  0.3023 -0.1596  0.2480
    1W        W30125   0.861   8.463   7.212 -0.1388 -0.0454  0.1217
    1W        W30126  24.269  17.144   1.412 -0.0787  0.0089 -0.0497
    1W        W30127  26.147  16.639   2.031 -0.0091 -0.1898  0.0602
    1W        W30128   7.205  18.134   0.649  0.1013  0.0996  0.0560
    1W        W30129  10.019   1.806   9.270  0.2079  0.2590 -0.0159
    1W        W30130   5.193  15.754   0.029 -0.0520  0.1073 -0.0408
    1W        W30131  26.369   7.453   6.776 -0.2589 -0.0156  0.1762
    1W        W30132   6.665   5.226   7.854 -0.2907 -0.3599  0.0476
    1W        W30133   1.440   6.914   1.231 -0.3176  0.1929  0.0432
    1W        W30134   2.284  20.791   2.033  0.1827 -0.2394 -0.0043
    1W        W30135  27.711  17.658   0.538 -0.1944  0.0698  0.1425
    1W        W30136   7.308  11.357   2.001 -0.2999 -0.0277  0.1188
    1W        W30137   3.185   3.227   6.500  0.1125  0.3356 -0.0718
    1W        W30138  23.449   8.850   1.813 -0.3898 -0.1587 -0.1219
    1W        W30139  18.350  15.473   8.548 -0.0735 -0.0260  0.1685
    1W        W30140  20.835   3.817   9.596 -0.2079  0.1046  0.0416
    1W        W30141   4.809  23.050   0.853  0.2149  0.3382 -0.0295
    1W        W30142  27.247  13.278   7.128 -0.3100  0.1539 -0.0998
    1W        W30143   9.933   8.411   9.682 -0.1405  0.1992  0.0456
    1W        W30144  27.817  19.958   7.214  0.3211 -0.0935  0.0574
    1W        W30145  15.252  20.373   7.493  0.3945  0.0704  0.0666
    1W        W30146   4.014  22.190   6.269 -0.0370  0.0905  0.1040
    1W        W30147  10.537   0.506   1.915  0.5329 -0.1313 -0.1240
    1W        W30148   3.007   5.719   2.751  0.2613  0.0844  0.3010
    1W        W30149  22.155  10.927   9.133 -0.3969  0.2875 -0.0796
    1W        W30150  13.266   3.242   2.452 -0.0287  0.1536  0.0816
    1W        W30151  15.583   3.982   8.979 -0.1083 -0.1313 -0.2503
    1W        W30152  14.638   6.685   8.536 -0.2208  0.1328  0.2351
    1W        W30153  16.655  17.769   7.814  0.0090  0.2684 -0.1357
    1W        W30154   5.580  25.858   0.730  0.0448 -0.2439  0.0104
    1W        W30155   1.050  20.852   7.260  0.3440  0.1363 -0.0643
    1W        W30156   2.041  11.184   1.168  0.1934  0.2177 -0.0936
    1W        W30157  21.259   0.069   6.566 -0.2049  0.0181 -0.0868
    1W        W30158   8.667   0.668   2.737 -0.1816 -0.0841 -0.3923
    1W        W30159   4.961  12.235   0.361  0.1354 -0.2100 -0.2099
    1W        W30160  17.289  28.801   1.898 -0.0801 -0.3115 -0.3068
    1W        W30161  15.377  15.726   8.129  0.0240  0.0791  0.2803
    1W        W30162   1.780   8.793   6.940  0.3299 -0.2893 -0.1913
    1W        W30163   2.551  26.460   9.229  0.2423  0.1101 -0.4661
    1W        W30164  20.305  20.382   2.086 -0.2579  0.1348  0.3065
    1W        W30165  27.483  27.680   2.008  0.3287  0.0334 -0.0896
    1W        W30166  18.261  10.995   7.975 -0.1317 -0.0465  0.0863
    1W        W30167  25.321   9.282   0.492  0.2238  0.2032 -0.1384
    1W        W30168  25.465  11.396   2.565  0.2415 -0.0509  0.1594
    1W        W30169  26.825   3.650   8.873  0.0001  0.0063 -0.0885
    1W        W30170   3.146  16.051   7.073 -0.1331  0.3035 -0.0666
    1W        W30171  21.368  16.288   2.551  0.2541  0.2308 -0.0630
    1W        W30172  20.261  19.776   7.677  0.2531 -0.2149  0.3416
    1W        W30173   9.190   6.670   1.946 -0.2729 -0.2463 -0.0729
    1W        W30174  16.832  22.849   8.428  0.0701 -0.1800  0.1270
    1W        W30175   5.687   1.513   6.899 -0.1309  0.3026  0.1907
    1W        W30176   9.156  16.032   1.178  0.1105 -0.0671  0.0867
    1W        W30177   9.454   6.078   7.952  0.1168  0.0124  0.0723
    1W        W30178   4.775  22.539   0.384 -0.0162  0.1620  0.0882
    1W        W30179  12.164  18.127   0.683 -0.0672  0.1404 -0.1084
    1W        W30180  11.320   2.042   2.694  0.0612 -0.0838  0.1216
    1W        W30181  15.438  28.213   7.247 -0.1531 -0.2492  0.1709
    1W        W30182  21.798   4.553   6.805  0.0392  0.0423 -0.0120
    1W        W30183  23.074  18.914   2.190  0.2581  0.0797 -0.0698
    1W        W30184  28.088  20.836   7.940  0.0514 -0.0315  0.1128
    1W        W30185  20.422  21.850   6.343 -0.1718 -0.2567  0.1061
    1W        W30186   7.282  15.165   7.434  0.0358  0.1456  0.0057
    1W        W30187   4.039  27.454   2.147 -0.1753  0.0033 -0.2046
    1W        W30188  11.482   2.211   1.724 -0.1232 -0.1124  0.1873
    1W        W30189   2.751  13.115   2.611 -0.0599 -0.0710  0.1835
    1W        W30190   6.617  28.906   2.609  0.0739  0.1836  0.0612
    1W        W30191  22.704   0.563   0.927 -0.0973  0.1031 -0.0600
    1W        W30192   0.141  28.032   8.726  0.1248 -0.0131  0.2874
    1W        W30193  23.254   7.400   8.154 -0.1558  0.3761  0.2986
    1W        W30194   2.101   7.166   5.867 -0.0281  0.2810  0.1056
    1W        W30195   2.304   9.315   2.106  0.1898  0.2393  0.2333
    1W        W30196   0.050  14.869   1.408 -0.1547  0.0041  0.1196
    1W        W30197   5.104   9.892   8.986  0.1230  0.0919 -0.2248
    1W        W30198  26.829  25.361   1.998 -0.0734 -0.1995 -0.2094
    1W        W30199  22.136  14.303   9.531  0.0623  0.0743 -0.1466
    1W        W30200  22.063   4.760   8.654  0.3176  0.0288 -0.1642
    1W        W30201  20.977  16.987   8.925 -0.1636 -0.0306  0.3852
    1W        W30202   5.046  21.398   6.013  0.2075  0.1046  0.0003
    1W        W30203  15.584   3.279   8.264 -0.0863 -0.2002 -0.2083
    1W        W30204  14.282  12.084   1.279 -0.0190 -0.1099 -0.1585
    1W        W30205  18.738  21.247   3.663  0.1389 -0.1735 -0.0061
    1W        W30206   7.709   6.740   9.304  0.2527 -0.5006 -0.0346
    1W        W30207   4.797  20.211   1.747  0.2001 -0.2782 -0.1193
    1W        W30208  23.720   0.879   8.711  0.0103 -0.3339 -0.1795
    1W        W30209  13.965  26.852   1.149 -0.2266  0.0238 -0.2946
    1W        W30210   0.359  15.982   8.024  0.0058 -0.1331  0.0984
    1W        W30211  24.397  12.002   0.604  0.1660  0.0868  0.0649
    1W        W30212  14.009  19.396   8.251  0.1881  0.2107 -0.0038
    1W        W30213  15.225  23.372   8.724  0.0279  0.1422  0.1031
    1W        W30214  17.351   1.850   8.374 -0.0797  0.0825 -0.1843
    1W        W30215  16.113  27.944   9.323  0.1848 -0.2684  0.0076
    1W        W30216  14.434  19.597   1.112  0.0204  0.1719  0.1080
    1W        W30217  12.579  15.820   1.108 -0.0197 -0.1542 -0.1463
    1W        W30218   3.058  22.906   7.256 -0.0767 -0.0677  0.1459
    1W        W30219  21.660   0.770   7.073  0.0077  0.3196  0.0387
    1W        W30220  12.185  22.445   9.151  0.0704 -0.0521  0.0251
    1W        W30221  16.614   8.747   0.643  0.3033  0.3180  0.3890
    1W        W30222   0.167  14.137   8.102  0.0216 -0.0979  0.2238
    1W        W30223  10.643   3.660   8.209 -0.1628 -0.1548  0.3181
    1W        W30224   2.036   2.545   0.247  0.0578  0.0045 -0.2501
    1W        W30225   2.137   1.027   5.865 -0.0591  0.1714 -0.1148
    1W        W30226  28.591   7.005   9.147  0.1599 -0.1858  0.3772
    1W        W30227  27.260   8.645   8.360 -0.0016  0.2486 -0.4768
    1W        W30228   6.932  18.049   6.899 -0.0613  0.1093 -0.3207
    1W        W30229   4.018  24.280   6.604  0.1963 -0.2514 -0.0597
    1W        W30230  20.345  25.124   9.245 -0.1098 -0.0424  0.1344
    1W        W30231  20.886  17.816   8.836  0.2305  0.0837 -0.0414
    1W        W30232  12.758  24.423   7.074  0.1599  0.1125  0.2363
    1W        W30233  28.333  29.062   2.309  0.0733  0.0921 -0.2248
    1W        W30234   9.791   4.126   7.328 -0.4426 -0.2960  0.4029
    1W        W30235   7.314  20.894   8.225  0.2302 -0.0802  0.0651
    1W        W30236   6.048  28.901   2.687  0.2084 -0.0869 -0.0960
    1W        W30237   1.834  13.905   1.089 -0.0221 -0.2953 -0.0781
    1W        W30238   2.426   4.565   0.545  0.1169 -0.1590 -0.1090
    1W        W30239   6.687  28.201   7.915 -0.1752 -0.0649  0.0034
    1W        W30240   5.882   6.923   1.635  0.0868 -0.0619 -0.0567
    1W        W30241   6.886  16.201   0.167 -0.0648 -0.0667  0.2657
    1W        W30242  12.050  12.340   7.638  0.2816  0.0254 -0.0180
    1W        W30243  10.455  26.748   1.955  0.0470  0.0259 -0.0282
    1W        W30244  19.126  12.206   2.277  0.0790 -0.1180 -0.0985
    1W        W30245   0.277  22.491   1.633 -0.0903 -0.2158  0.0697
    1W        W30246  14.166  28.175   4.719 -0.1031  0.2494 -0.0526
    1W        W30247  25.629  23.818   8.418  0.1117 -0.1946  0.0668
    1W        W30248   5.982   2.742   2.216  0.2211  0.0741 -0.1389
    1W        W30249  16.178   3.978   3.176  0.3667 -0.1456  0.0536
    1W        W30250  21.219  17.471   8.818  0.2162  0.1430  0.0711
    1W        W30251   5.202   7.686   0.677 -0.1319 -0.2355  0.2715
    1W        W30252  18.643  10.002   8.037  0.1369  0.1622 -0.0748
    1W        W30253  20.925  16.053   8.714  0.1840  0.0490 -0.0185
    1W        W30254  16.049   6.591   2.790  0.2399 -0.0391 -0.2369
    1W        W30255  12.407   5.969   7.601  0.2319 -0.0839  0.3171
    1W        W30256   8.355  25.629   0.022  0.3105  0.0130 -0.0610
    1W        W30257  27.336  26.356   6.730 -0.0669  0.4070  0.3297
    1W        W30258   2.281  10.709   7.755 -0.1463 -0.0974 -0.1023
    1W        W30259  13.833  23.107   0.622  0.0501 -0.0435  0.1420
    1W        W30260   0.477   8.335   9.373 -0.0880 -0.0251 -0.2345
    1W        W30261   8.474  21.420   7.962  0.1743 -0.2274  0.0847
    1W        W30262  10.965   6.818   9.541  0.1796 -0.0480 -0.2801
    1W        W30263  10.622  16.987   2.329 -0.0493  0.1914  0.2751
    1W        W30264   7.680  27.513   7.581 -0.2139  0.0782  0.0097
    1W        W30265   3.140  28.971   1.580 -0.1547 -0.0017  0.1445
    1W        W30266  26.166  12.688   7.676  0.1151  0.0454 -0.3077
    1W        W30267   6.367   7.956   7.746 -0.0627 -0.1684 -0.0885
    1W        W30268   5.467   4.967   1.603 -0.0543 -0.0300  0.0568
    1W        W30269  10.960   0.217   2.011 -0.0193 -0.0990 -0.1390
    1W        W30270  23.877  14.848   9.289 -0.2637 -0.1594  0.1158
    1W        W30271   0.159  10.115   6.136 -0.0023 -0.2829  0.3957
    1W        W30272  14.875  26.876   8.656 -0.1398 -0.0294 -0.0877
    1W        W30273  25.630  25.962   2.467 -0.2311  0.0455 -0.1182
    1W        W30274   3.627  17.254   7.832 -0.1950 -0.3037  0.1366
    1W        W30275  11.099  22.755   1.892 -0.3302  0.0322  0.1772
    1W        W30276   2.658   3.322   7.363  0.1864  0.0534 -0.0764
    1W        W30277  19.207  22.681   2.361  0.0202  0.3557  0.2464
    1W        W30278   7.485  16.444   7.494 -0.2058 -0.2742 -0.3808
    1W        W30279  23.590   9.716   7.316 -0.0723  0.3095  0.0344
    1W        W30280  13.680   5.755   3.206  0.0938 -0.3186 -0.2608
    1W        W30281   6.239   0.976   7.995 -0.1298 -0.0812 -0.1828
    1W        W30282  24.384  25.285   1.153  0.1014  0.0056  0.0260
    1W        W30283   2.604  26.776   7.788 -0.0927  0.0781 -0.1595
    1W        W30284  25.112  24.866   8.063 -0.0014 -0.0579 -0.0029
    1W        W30285  16.286  19.251   2.019  0.0354 -0.1436  0.1067
    1W        W30286  17.732  28.373   0.995 -0.0052 -0.2372 -0.0159
    1W        W30287  25.980   8.223   8.340  0.2010 -0.0760  0.1016
    1W        W30288   3.969  28.995   6.745  0.1154  0.0213 -0.1172
    1W        W30289   5.565  22.324   0.960  0.0558  0.2482 -0.1264
    1W        W30290  28.387   1.321   1.709  0.1934  0.4005  0.1125
    1W        W30291   6.954  27.815   2.383  0.3887 -0.2191  0.1403
    1W        W30292  18.178  27.879   0.308  0.2201  0.2873 -0.2680
    1W        W30293   1.394   5.552   6.140 -0.1272 -0.2913 -0.0821
    1W        W30294   8.501   8.120   9.384  0.2767 -0.1358 -0.0337
    1W        W30295  28.307  20.895   0.153  0.0672 -0.1696 -0.0435
    1W        W30296  14.348  15.884   1.227  0.0948 -0.0242 -0.1056
    1W        W30297  16.285  14.310   9.414 -0.2818  0.1001 -0.0641
    1W        W30298  13.289  12.533   2.210 -0.0899 -0.2783  0.2428
    1W        W30299  11.830   5.334   8.037 -0.0024  0.0158 -0.1280
    1W        W30300   3.764  14.057   0.051  0.0304  0.4444  0.2214
    1W        W30301  13.091  22.549   0.989  0.3683 -0.1212  0.1148
    1W        W30302   6.418   8.655   8.256  0.0547  0.2914 -0.0328
    1W        W30303   6.067  26.630   9.216  0.0921  0.1265  0.1477
    1W        W30304  25.999  26.192   7.591  0.0376  0.0663  0.2484
    1W        W30305   9.559   4.884   1.229 -0.1037 -0.1229 -0.2616
    1W        W30306   0.951   1.901   2.312  0.0683 -0.4761  0.1833
    1W        W30307   8.928   4.429   7.450  0.0926  0.0417  0.0171
    1W        W30308   3.949   6.781   9.078 -0.0407 -0.1022  0.3204
    1W        W30309  22.787  15.612   0.541  0.1867 -0.0206  0.2953
    1W        W30310  24.183  10.885   1.230  0.0882 -0.2090 -0.2795
    1W        W30311  15.646  14.741   7.344  0.4071 -0.0930  0.0747
    1W        W30312   9.559  23.160   1.302  0.1022 -0.2012 -0.1170
    1W        W30313  23.926   9.214   9.286 -0.0825  0.1982 -0.4715
    1W        W30314  27.995   8.482   0.338  0.1418  0.1089 -0.1392
    1W        W30315  25.647  21.021   1.104  0.0022 -0.3339  0.1286
    1W        W30316  20.651   2.457   2.044  0.1595 -0.2293  0.0085
    1W        W30317   4.887   7.785   6.640  0.2905 -0.0260 -0.1313
    1W        W30318   3.064   6.674   9.623 -0.2199  0.1455 -0.0639
    1W        W30319   6.360   3.088   1.519 -0.1334  0.0844 -0.3232
    1W        W30320   5.910  18.208   7.804 -0.3138  0.0267  0.0175
    1W        W30321  10.678  24.777   0.762 -0.0372  0.0464  0.1133
    1W        W30322   9.303  21.910   9.376 -0.1812 -0.1711 -0.1415
    1W        W30323   1.515   4.846   0.546 -0.1810 -0.0193 -0.0213
    1W        W30324  21.134  12.339   2.052 -0.0169  0.2943 -0.3697
    1W        W30325  13.774   9.162   8.315 -0.1028 -0.4422 -0.0243
    1W        W30326  22.031  12.647   8.875  0.1770 -0.1728 -0.4814
    1W        W30327   0.864  23.823   1.104  0.1151 -0.2195  0.1072
    1W        W30328  27.855  20.740   6.357  0.0536 -0.2881 -0.1813
    1W        W30329  19.040   1.375   8.597  0.0311  0.1583 -0.0143
    1W        W30330  21.095   3.057   2.063 -0.2254 -0.1042 -0.3023
    1W        W30331  12.051   6.567   2.327  0.2379  0.2327  0.0177
    1W        W30332   8.292   7.478   2.672  0.1421  0.1189  0.1586
    1W        W30333  10.387   2.238   2.459  0.1072 -0.0323  0.3758
    1W        W30334   6.678  19.782   8.261  0.0546  0.4002  0.0231
    1W        W30335  18.680  24.815   2.581 -0.0380 -0.1907 -0.0538
    1W        W30336  28.698   0.348   7.283 -0.1822 -0.3093 -0.2141
    1W        W30337  21.091  11.835   1.895 -0.2856 -0.0820 -0.0955
    1W        W30338   1.620  13.239   7.810  0.0302  0.0337 -0.1088
    1W        W30339  19.368  19.484   2.516  0.0366 -0.1625  0.4017
    1W        W30340   3.491   4.297   1.601 -0.2489 -0.0793  0.0869
    1W        W30341   2.737   0.679   1.678  0.1677  0.0096  0.1201
    1W        W30342   7.228  20.041   0.003  0.0394 -0.1965  0.0979
    1W        W30343   3.709  10.935   9.262  0.2459  0.2459 -0.0023
    1W        W30344  28.500  22.210   6.642 -0.0316  0.0323  0.0271
    1W        W30345   4.463  17.029   1.842 -0.1999 -0.0857 -0.0883
    1W        W30346   1.626  12.736   7.658  0.0811 -0.2121  0.0255
    1W        W30347   8.898  14.356   8.294 -0.2004  0.2099  0.2864
    1W        W30348  23.726  21.525   1.352 -0.1423  0.0849 -0.0946
    1W        W30349  22.695   2.472   7.494  0.4406  0.0643  0.1465
    1W        W30350  11.692  28.344   7.850  0.0232 -0.2157  0.0637
    1W        W30351   5.566  13.619   0.453 -0.2903  0.1286 -0.0807
    1W        W30352  19.588  25.867   0.666  0.0422 -0.1923 -0.3057
    1W        W30353  26.439  27.946   8.179  0.0066  0.2397  0.2012
    1W        W30354   7.492   4.903   8.663  0.1155 -0.2764  0.1637
    1W        W30355  12.452  10.052   3.031  0.0450 -0.0938 -0.0619
    1W        W30356  18.991  12.378   8.609 -0.0995  0.0070 -0.3561
    1W        W30357  24.200  16.418   7.665  0.2298  0.0759  0.1903
    1W        W30358   8.568  10.950   7.218 -0.0080  0.0938 -0.1058
    1W        W30359  14.162  11.620   1.264 -0.0904 -0.1116 -0.4742
    1W        W30360   2.757  10.178   0.785  0.0008  0.0655  0.0819
    1W        W30361   6.824   3.085   0.618  0.1775  0.1402  0.1249
    1W        W30362   3.932  14.359   0.571  0.0722 -0.0654 -0.1018
    1W        W30363  24.492   1.241   1.944  0.0507  0.1163 -0.2245
    1W        W30364  20.574  11.192   0.700  0.1286 -0.1815 -0.2219
    1W        W30365  20.534  27.108   1.473 -0.1955 -0.1348  0.2718
    1W        W30366  12.231   4.888   2.825  0.2266  0.0258  0.2175
    1W        W30367  25.189  20.919   1.338  0.1792  0.1368 -0.1611
    1W        W30368  27.423   2.245   8.915 -0.1135 -0.1770 -0.1213
    1W        W30369   1.262  19.418   1.400  0.0861  0.3923  0.1141
    1W        W30370  27.296   6.757   1.276 -0.2386  0.1450  0.1256
    1W        W30371  19.349  14.152   7.058 -0.1185  0.0864  0.2577
    1W        W30372   4.205  16.404   8.233  0.3228 -0.2554 -0.0135
    1W        W30373  18.368  11.772   8.377  0.2678 -0.1027 -0.3763
    1W        W30374   3.073   5.978   7.408 -0.1317  0.0621  0.0829
    1W        W30375   9.942  16.137   7.528  0.0748  0.0783 -0.0276
    1W        W30376  28.440   2.081   9.019 -0.3289 -0.0729 -0.0263
    1W        W30377  11.703   8.178   1.471  0.1275  0.0628  0.1042
    1W        W30378  18.957  10.826   3.200 -0.1732 -0.1121 -0.1288
    1W        W30379   6.806  16.932   1.276  0.0360  0.2181 -0.0679
    1W        W30380  26.391   3.153   7.244  0.0385  0.1360  0.2084
    1W        W30381  13.894  12.526   2.135  0.1234  0.1873  0.2059
    1W        W30382   3.987  19.759   1.064 -0.0191  0.0494 -0.0656
    1W        W30383  21.949  26.775   1.065 -0.0916 -0.2131  0.3278
    1W        W30384  22.583  10.827   8.756 -0.0454  0.1233 -0.1258
    1W        W30385  26.682   8.214   1.779 -0.0288  0.0082 -0.2082
    1W        W30386  27.244   6.727   7.924  0.0446 -0.3055 -0.1653
    1W        W30387   4.017  15.397   0.179 -0.1871 -0.1654  0.2070
    1W        W30388  19.934   6.711   9.311  0.1064  0.3374  0.0095
    1W        W30389   6.170   2.704   1.287  0.2622  0.3073  0.0745
    1W        W30390  12.948  29.145   2.919 -0.2191 -0.2224 -0.1034
    1W        W30391  17.291   2.641   6.889  0.0558  0.0085 -0.4401
    1W        W30392  16.181  21.486   9.599 -0.2304 -0.2162  0.2756
    1W        W30393  20.586  15.775   0.159  0.1527  0.2078 -0.0091
    1W        W30394  23.620  18.287   1.801 -0.1838  0.0912 -0.1833
    1W        W30395  24.511  20.131   7.493  0.0494 -0.0923 -0.0715
    1W        W30396  13.548   2.247   9.001 -0.1822 -0.1137 -0.0247
    1W        W30397  14.089  17.648   2.395  0.2435  0.1353 -0.0798
    1W        W30398  25.806   2.050   2.791  0.0190  0.2605 -0.0019
    1W        W30399   3.310  13.780   6.838 -0.1332 -0.0356 -0.1864
    1W        W30400  18.675  17.060   8.589 -0.4233 -0.0363 -0.2304
    1W        W30401   5.284  23.934   7.466 -0.1935 -0.1917  0.0383
    1W        W30402  18.741  26.009   0.195  0.3137 -0.0106 -0.0246
    1W        W30403   0.905  28.874   7.233  0.0896  0.0221 -0.4880
    1W        W30404   2.718   7.306   7.200 -0.0063  0.1079  0.2353
    1W        W30405   5.389   7.274   3.092 -0.0065  0.1968  0.2277
    1W        W30406  22.678   4.939   2.225 -0.1110 -0.3369  0.0574
    1W        W30407  28.548  12.141   7.037  0.1160 -0.2093  0.1157
    1W        W30408   8.682   9.350   7.165 -0.0591  0.1733 -0.2624
    1W        W30409  20.464   1.271   2.992 -0.0213  0.0709  0.0414
    1W        W30410  18.467  23.735   3.387  0.2854 -0.0554 -0.0656
    1W        W30411  21.975  29.334   7.731  0.1252 -0.1538 -0.1133
    1W        W30412  20.383  15.940   8.794 -0.1580 -0.1194  0.2995
    1W        W30413   3.764  19.323   8.856  0.1510  0.1528 -0.0839
    1W        W30414  10.095   6.856   8.688  0.0147  0.1538  0.2518
    1W        W30415  15.289   4.491   7.210 -0.2273 -0.0489  0.1350
    1W        W30416  28.177  20.393   8.633  0.2008 -0.0737  0.2198
    1W        W30417  19.453   5.966   8.014  0.3058 -0.0344 -0.0535
    1W        W30418  19.310  29.047   6.524 -0.0768  0.0752  0.1175
    1W        W30419  10.801  13.642   0.215 -0.1140  0.3782  0.2476
    1W        W30420  10.819   7.075   2.396  0.0962  0.0446 -0.0491
    1W        W30421  25.179  19.518   3.328 -0.0902  0.1228 -0.0893
    1W        W30422   4.274   2.239   1.951  0.1440 -0.2140 -0.3285
    1W        W30423   3.104  13.268   8.519 -0.0587 -0.0950  0.1910
    1W        W30424   4.233  16.376   0.411 -0.0420  0.0283 -0.2084
    1W        W30425   4.768  16.485   7.394  0.0567 -0.3453  0.0726
    1W        W30426  22.647  17.352   8.925  0.0435 -0.3617  0.1948
    1W        W30427  18.865   6.371   2.623  0.0743  0.1447 -0.3973
    1W        W30428  23.380  12.857   9.445 -0.0817 -0.0947  0.0487
    1W        W30429  27.499  10.662   1.700 -0.2930 -0.0666  0.0884
    1W        W30430  28.382  16.650   9.367 -0.1000 -0.0136  0.0339
    1W        W30431  21.046   1.432   1.466 -0.0611  0.3390 -0.1017
    1W        W30432   0.742   7.303   7.263  0.0798  0.1049  0.0308
    1W        W30433  13.990  12.541   1.458 -0.1234  0.0601 -0.0146
    1W        W30434  13.528   6.350   1.270 -0.0588 -0.1897 -0.0405
    1W        W30435   1.703   3.102   8.049 -0.3526 -0.2664  0.1583
    1W        W30436  24.229  10.655   7.726 -0.1030 -0.0845 -0.1973
    1W        W30437   9.646  15.126   1.039  0.2109 -0.0385 -0.0369
    1W        W30438  14.474  11.920   0.025  0.0277  0.1971  0.1285
    1W        W30439  28.011  13.639   8.455  0.1215 -0.2808  0.0158
    1W        W30440  21.133   7.287   9.641  0.2951 -0.3980  0.1786
    1W        W30441   2.730  17.589   8.019 -0.3275  0.0961  0.0475
    1W        W30442   5.712  17.278   8.385 -0.2002  0.1543 -0.1992
    1W        W30443  22.815   5.096   6.874  0.0470 -0.0533  0.1128
    1W        W30444  22.132  19.593   7.936 -0.0020  0.3650  0.1010
    1W        W30445   6.260  22.404   5.967 -0.0169  0.0295 -0.0177
    1W        W30446   7.542  11.172   8.708 -0.1186  0.1239  0.0367
    1W        W30447  12.135  25.461   3.331 -0.0034  0.2288  0.0368
    1W        W30448  24.702  20.586   7.554  0.2573  0.2152  0.0801
    1W        W30449  22.469  21.275   3.306  0.1974  0.0736 -0.0653
    1W        W30450   0.822   3.664   2.091 -0.2049 -0.2998 -0.1432
    1W        W30451  28.443   7.678   0.924  0.1599  0.1175 -0.1566
    1W        W30452  22.173  29.153   8.266 -0.0854 -0.3112 -0.0629
    1W        W30453  26.336  28.645   0.968  0.0985  0.0195  0.1411
    1W        W30454  26.915   0.382   1.221  0.1206 -0.1510 -0.0205
    1W        W30455  14.320  17.402   9.426  0.0566  0.0893  0.1709
    1W        W30456   4.331   3.058   8.636  0.1317  0.0724 -0.1793
    1W        W30457   5.468  23.008   7.602 -0.0812  0.1483  0.0916
    1W        W30458  10.276  12.977   0.482 -0.4524 -0.0027  0.0006
    1W        W30459  27.079  22.722   1.622 -0.0687  0.3155 -0.0410
    1W        W30460   9.403   0.810   1.182  0.1050 -0.1499  0.0664
    1W        W30461  28.290  26.709   7.973  0.2668 -0.1909 -0.0664
    1W        W30462   9.168  14.242   1.297  0.2534  0.3985  0.0271
    1W        W30463  18.388  15.604   1.621  0.0004  0.0126  0.1736
    1W        W30464  14.454   4.112   1.265 -0.0974  0.0144 -0.0240
    1W        W30465  26.231   3.919   7.764  0.3449  0.0442 -0.0368
    1W        W30466   4.041   0.757   0.442  0.0981 -0.0361  0.0248
    1W        W30467   6.839   1.055   8.222 -0.1866 -0.1828  0.1143
    1W        W30468   5.435  11.963   6.637 -0.1286 -0.0022  0.2888
    1W        W30469  22.530   2.513   1.812  0.4112 -0.0409 -0.1789
    1W        W30470   6.557  13.594   0.203  0.3637 -0.1364  0.2027
    1W        W30471  27.587  15.979   7.957  0.0003  0.0281  0.0334
    1W        W30472   1.562  27.594   1.447  0.1039 -0.2504 -0.0788
    1W        W30473   1.177   6.976   9.189 -0.1755  0.2286  0.2048
    1W        W30474   0.614  26.411   2.961  0.0409  0.0609 -0.1640
    1W        W30475  27.090  10.059   1.763 -0.0697  0.1742  0.0722
    1W        W30476  20.457  19.408   1.623 -0.0755  0.1312  0.1356
    1W        W30477  28.080  20.058   9.011 -0.1008  0.1753  0.0345
    1W        W30478   4.341  14.083   7.440 -0.1115 -0.1544 -0.2474
    1W        W30479  16.148  11.097   9.189  0.0787  0.1244 -0.0252
    1W        W30480  26.602   6.054   7.385 -0.0310 -0.0344 -0.1578
    1W        W30481  25.286   3.692   6.178  0.0603 -0.1915  0.0559
    1W        W30482  22.021  19.552   1.679 -0.0789  0.0297 -0.0727
    1W        W30483   7.419   1.789   9.452 -0.0133 -0.2348  0.7006
    1W        W30484   6.519  23.863   6.928 -0.2426  0.1417 -0.1004
    1W        W30485   5.190  24.075   9.172  0.1401  0.2379  0.0681
    1W        W30486  10.719  25.431   2.286  0.2003 -0.3724 -0.2649
    1W        W30487  26.934  17.910   7.023 -0.0527  0.0970 -0.1607
    1W        W30488  21.066  26.671   7.551 -0.1930  0.1520  0.0008
    1W        W30489  27.470  13.016   6.596  0.0017  0.0651 -0.1668
    1W        W30490   5.074  12.102   8.154  0.0366  0.3692 -0.1416
    1W        W30491  21.384  14.556   0.892 -0.2096 -0.0990 -0.0887
    1W        W30492   2.645  20.834   8.143 -0.1823  0.0493  0.2711
    1W        W30493   9.150  14.367   7.148  0.0003 -0.1488 -0.0937
    1W        W30494   0.591   5.658   1.312  0.4291 -0.2322  0.1406
    1W        W30495   9.577   4.156   6.784 -0.2768 -0.0538 -0.1437
    1W        W30496  21.746  13.721   7.801 -0.1185  0.1331  0.2633
    1W        W30497   8.563   3.723   9.614 -0.3395 -0.1199 -0.0765
    1W        W30498  17.139   0.615   9.433  0.0151 -0.2518 -0.0914
    1W        W30499  25.485   3.830   2.346 -0.0277  0.2346  0.1606
    1W        W30500  18.597  25.114   8.943  0.1340 -0.0254 -0.0696
    1W        W30501   5.262   2.770   7.317 -0.0279 -0.1277 -0.0634
    1W        W30502   7.937  22.093   0.658 -0.0572 -0.0429 -0.2241
    1W        W30503  29.348  20.430   6.417  0.2070  0.4801  0.1155
    1W        W30504  18.387   2.544   7.569 -0.0703  0.1256  0.1939
    1W        W30505   8.432  16.472   1.480  0.1647 -0.1506 -0.2295
    1W        W30506  24.803  14.849   7.745 -0.2597  0.0984  0.3616
    1W        W30507  27.538   2.653   2.660 -0.0451  0.0751  0.0030
    1W        W30508  18.771   1.255   3.510  0.0210  0.2915  0.4491
    1W        W30509  10.931  15.721   9.183 -0.2245 -0.1338 -0.2015
    1W        W30510  17.780   4.118   0.569 -0.1073 -0.1118  0.0654
    1W        W30511  18.707   4.131   6.477 -0.2516 -0.2831 -0.2081
    1W        W30512  15.506  20.650   0.152 -0.1969  0.0845  0.1775
    1W        W30513   0.329   0.903   2.289 -0.0424  0.1657 -0.2621
    1W        W30514  14.276  19.290   1.595  0.2552 -0.0180  0.0183
    1W        W30515  19.268  20.699   8.086  0.1471  0.0441  0.2227
    1W        W30516  10.948  13.470   1.930  0.2661 -0.0826  0.0794
    1W        W30517  20.746  20.607   0.958 -0.0441  0.3002 -0.4253
    1W        W30518   7.924   6.085   8.819  0.0135 -0.0328  0.1695
    1W        W30519  23.922   3.734   7.889  0.0755 -0.2652  0.0293
    1W        W30520  19.866   3.578   7.087 -0.1268 -0.0640  0.2015
    1W        W30521  18.315   7.001   2.921 -0.0510  0.2835 -0.2350
    1W        W30522  26.686  25.876   2.205 -0.0980 -0.0963 -0.0899
    1W        W30523  25.509  21.696   8.790 -0.0098 -0.0774 -0.2001
    1W        W30524  25.565  26.410   7.436 -0.0810 -0.1549 -0.1441
    1W        W30525   5.005  28.647   0.983 -0.4856 -0.0997  0.0781
    1W        W30526  25.157   8.581   1.528  0.1047 -0.1940  0.3662
    1W        W30527   4.469  10.391   7.793  0.0539 -0.1638 -0.0248
    1W        W30528  25.330  17.535   7.123 -0.0959  0.1476 -0.2076
    1W        W30529  13.182  27.803   2.391  0.0434 -0.0751 -0.0158
    1W        W30530  23.284   6.270   8.299 -0.4115 -0.1497  0.4874
    1W        W30531   8.080  12.937   1.295  0.1450 -0.1265 -0.1672
    1W        W30532  22.392  27.184   7.290 -0.2207  0.1019  0.2565
    1W        W30533  26.147  24.158   9.616 -0.0524 -0.0732 -0.0710
    1W        W30534  20.911   3.011   8.897 -0.2131 -0.0613  0.0086
    1W        W30535  18.183  24.920   8.701  0.0467 -0.2370  0.2256
    1W        W30536  22.629  16.506   7.032  0.1782  0.1404 -0.1631
    1W        W30537  18.599  16.851   2.449 -0.0247  0.1274  0.1263
    1W        W30538  19.315  25.380   7.228 -0.0872 -0.1876 -0.2291
    1W        W30539  18.037   7.105   2.219 -0.0032  0.1255  0.1325
    1W        W30540   9.833  18.855   7.166  0.0573  0.0154 -0.1020
    1W        W30541   1.548  28.293   1.676 -0.0245 -0.2054 -0.2644
    1W        W30542  24.438   4.643   9.136  0.1231  0.1604 -0.2485
    1W        W30543  11.808   6.808   2.965 -0.0679  0.2399 -0.0671
    1W        W30544   0.635   9.320   8.353  0.1862 -0.3719  0.0262
    1W        W30545  19.252  19.491   8.610 -0.0847 -0.1414 -0.1555
    1W        W30546  24.745   8.371   1.288  0.2205  0.0794  0.1515
    1W        W30547   5.082  25.320   8.482 -0.1213 -0.3104  0.0435
    1W        W30548   2.620  16.430   8.189 -0.0799  0.0895 -0.1584
    1W        W30549   1.094   5.173   0.558 -0.1198  0.0346 -0.1838
    1W        W30550  16.493  20.750   2.779 -0.1050  0.0654 -0.1005
    1W        W30551  10.092  23.107   8.897  0.1866 -0.1350 -0.0192
    1W        W30552  20.313  12.068   2.504  0.1511  0.0374 -0.0866
    1W        W30553  19.792  23.322   9.667 -0.2580 -0.0175  0.2416
    1W        W30554  28.943  21.140   9.126 -0.1045  0.2360  0.2188
    1W        W30555  15.579  27.376   7.882  0.0742 -0.0403 -0.2278
    1W        W30556   0.891   6.986   6.827 -0.1465 -0.1587 -0.0250
    1W        W30557   6.475   1.836   7.723 -0.2101  0.2375 -0.1131
    1W        W30558   7.519  15.489   0.608 -0.0595  0.2234  0.2154
    1W        W30559  25.630  27.122   0.187  0.0469 -0.2715  0.2816
    1W        W30560  21.889  15.405   0.668 -0.0879  0.0707 -0.2208
    1W        W30561   7.467  11.933   9.393 -0.0139  0.1023  0.1816
    1W        W30562   0.595  16.585   9.313 -0.1700 -0.0705  0.2194
    1W        W30563   3.078   2.193   6.902 -0.0654 -0.2388 -0.3893
    1W        W30564   8.577  12.315   8.287  0.3806  0.0272 -0.0668
    1W        W30565   6.197  11.095   1.920 -0.0087 -0.0283 -0.2622
    1W        W30566   0.456   3.988   6.480 -0.1887 -0.1244  0.0163
    1W        W30567   6.901   1.483   0.772  0.1350 -0.1320 -0.1737
    1W        W30568  24.784   5.941   1.792 -0.0885 -0.0187  0.0858
    1W        W30569  28.312   3.730   7.835  0.1084 -0.0459 -0.0140
    1W        W30570   7.210  11.498   0.374 -0.2044 -0.2868  0.4697
    1W        W30571  29.279  28.115   9.148 -0.1377 -0.2161 -0.0728
    1W        W30572  13.374   1.995   8.577  0.0127  0.0772 -0.2725
    1W        W30573  22.568  22.993   9.682 -0.1679 -0.2141 -0.0524
    1W        W30574  24.210   1.325   0.763 -0.1637  0.2197  0.1850
    1W        W30575   9.384  26.880   8.432  0.1673 -0.0735 -0.1747
    1W        W30576  19.862  28.891   9.061  0.2278  0.0574  0.0377
    1W        W30577  26.836  12.772   5.909  0.0679  0.1014  0.3546
    1W        W30578   9.856  16.589   7.208  0.0510 -0.0807  0.0628
    1W        W30579  24.884  22.835   1.364 -0.0438 -0.0348  0.3197
    1W        W30580   4.509  16.699   0.709 -0.0030 -0.1082  0.1366
    1W        W30581  21.888   6.949   3.721 -0.2016  0.1244 -0.1379
    1W        W30582  20.989  23.449   2.589 -0.3553  0.1924  0.1755
    1W        W30583  15.674  11.024   7.700 -0.0321  0.3195  0.3798
    1W        W30584  28.756  22.463   9.679 -0.1516 -0.4115  0.2464
    1W        W30585   8.260   2.264   2.694 -0.0847  0.2465 -0.2950
    1W        W30586   8.670  23.053   6.319  0.1008 -0.0849  0.2907
    1W        W30587  12.571  13.211   8.698  0.2777  0.0660 -0.0863
    1W        W30588  14.014  15.834   7.105 -0.0097  0.1336 -0.2778
    1W        W30589  25.755   5.285   8.869 -0.3317 -0.0784 -0.1665
    1W        W30590  10.374   5.327   0.175  0.2504  0.3435  0.2072
    1W        W30591  14.374   8.147   8.739  0.0604 -0.2273 -0.1329
    1W        W30592   9.516  16.163   2.319 -0.1525  0.0009 -0.4464
    1W        W30593  18.680   3.230   0.042 -0.0897  0.2701 -0.1253
    1W        W30594  21.728  25.124   6.938  0.1732 -0.3215  0.1484
    1W        W30595  28.498   7.268   0.572 -0.1325 -0.1004 -0.1412
    1W        W30596  20.703  11.362   7.707  0.0506 -0.1339  0.1123
    1W        W30597   6.025  14.343   6.430  0.2283  0.0715  0.2532
    1W        W30598  23.577  22.095   2.890 -0.3407  0.2153  0.3134
    1W        W30599   8.607  11.863   1.841  0.2974  0.3638 -0.0010
    1W        W30600  16.956   8.836   9.653  0.2282 -0.1719 -0.0013
    1W        W30601  24.529   4.493   1.233  0.0689 -0.0525 -0.2138
    1W        W30602  22.855  23.377   0.121 -0.2291 -0.2723  0.2105
    1W        W30603  21.253  27.436   9.573 -0.0293 -0.0555  0.0238
    1W        W30604   8.101   7.987   0.474 -0.1144 -0.0275 -0.0950
    1W        W30605  21.091  13.365   8.768  0.0515 -0.2053  0.0908
    1W        W30606  11.314   3.165   3.248  0.1984 -0.0548 -0.0193
    1W        W30607  27.406  21.841   8.020  0.1473  0.2464 -0.3365
    1W        W30608   8.776  14.582   1.205 -0.1306 -0.0242  0.0354
    1W        W30609   8.729  21.354   1.171 -0.4104  0.0940  0.2241
    1W        W30610  19.244  29.318   6.983  0.3765  0.0387 -0.4424
    1W        W30611   2.264  29.108   1.705  0.0301 -0.1156 -0.1249
    1W        W30612   6.146  19.483   9.119  0.2976  0.0339  0.0969
    1W        W30613   4.285   7.077   6.662  0.0017 -0.1595  0.0497
    1W        W30614   9.821   3.333   0.210 -0.0984  0.2585 -0.1570
    1W        W30615   8.676  28.127   2.349  0.1734 -0.0093  0.0642
    1W        W30616  27.674  18.407   7.863 -0.2554  0.0859  0.1889
    1W        W30617   9.704  11.891   7.945 -0.1195  0.1672 -0.2580
    1W        W30618  27.074   4.810   7.480  0.2067 -0.5562 -0.0367
    1W        W30619  28.821  23.843   6.677 -0.0409 -0.1553  0.0526
    1W        W30620  14.626   0.762   3.264  0.0123 -0.2251 -0.3821
    1W        W30621   2.366  17.001   0.760  0.3981  0.1980 -0.0766
    1W        W30622   6.199  18.571   8.166  0.1250  0.2770 -0.0595
    1W        W30623   8.943  22.906   6.872  0.0597  0.0770  0.3691
    1W        W30624  21.504   5.943   9.139 -0.1605  0.1131 -0.1965
    1W        W30625  14.994  17.069   8.925 -0.0935 -0.0095  0.0555
    1W        W30626   5.197  11.170   0.906 -0.1371 -0.2284 -0.0409
    1W        W30627  26.497  19.526   2.918  0.0215  0.0503 -0.2254
    1W        W30628  17.956  17.193   9.042  0.1384 -0.1365 -0.1798
    1W        W30629   7.157  23.442   0.692 -0.2888  0.3890 -0.2654
    1W        W30630  16.535  21.187   0.172  0.3174  0.0357  0.2077
    1W        W30631  26.281   5.131   6.242 -0.0209  0.1526 -0.4493
    1W        W30632  15.877   6.260   1.097 -0.2897 -0.1848 -0.2573
    1W        W30633  24.907  24.875   7.638  0.2012 -0.2074  0.0580
    1W        W30634   2.234  16.007   0.465  0.0079 -0.0336 -0.2792
    1W        W30635   8.609  11.270   0.978 -0.0143 -0.0768 -0.0791
    1W        W30636  20.521  20.664   9.351  0.2335  0.3454 -0.1982
    1W        W30637  21.257   8.498   3.146  0.1835 -0.0357  0.0027
    1W        W30638  26.390  12.866   0.011  0.1458  0.0694 -0.0381
    1W        W30639  11.991  17.565   7.589 -0.1416 -0.0854  0.1607
    1W        W30640   0.891   5.204   1.055 -0.2897  0.0052  0.1480
    1W        W30641  22.295  24.212   1.710  0.0900 -0.0240  0.4208
    1W        W30642  16.439  19.142   7.905  0.3069 -0.0390 -0.1264
    1W        W30643   9.245  21.942   8.423 -0.1713 -0.0420  0.0883
    1W        W30644   4.810  10.359   8.212 -0.5667 -0.1142  0.0361
    1W        W30645  15.683   0.259   0.336 -0.1560 -0.1073 -0.2400
    1W        W30646   2.143  10.810   1.447  0.0090 -0.0617 -0.1303
    1W        W30647   2.429   6.070   1.922  0.0019  0.1415 -0.1268
    1W        W30648  28.114  24.089   7.599  0.1488  0.0270  0.0199
    1W        W30649  13.347   4.092   3.112  0.0219 -0.0854 -0.1857
    1W        W30650  25.933  19.494   8.774  0.2269 -0.0210  0.0654
    1W        W30651   3.754   1.885   9.177 -0.2874 -0.1233  0.1054
    1W        W30652   8.175  29.227   0.459 -0.0251 -0.0139 -0.1245
    1W        W30653  18.819  29.022   6.715  0.0702  0.0178  0.5064
    1W        W30654   2.837  11.069   2.737  0.1756 -0.1147  0.0233
    1W        W30655   5.251  11.205   7.451  0.2441 -0.1068 -0.1657
    1W        W30656   7.468  24.533   7.342  0.1277 -0.1444 -0.2990
    1W        W30657  26.591  20.505   8.383  0.2103 -0.0403  0.1938
    1W        W30658  21.867  20.562   1.279 -0.2935  0.2895 -0.1017
    1W        W30659  16.165   6.237   8.919  0.1540  0.2075 -0.0044
    1W        W30660  11.081  22.830   7.082 -0.3082 -0.1946  0.2080
    1W        W30661   6.871   1.901   9.104 -0.0894  0.0583 -0.1882
    1W        W30662  24.689  15.549   8.415  0.1354  0.2899  0.0464
    1W        W30663  10.678  11.581   2.626 -0.1484 -0.2017 -0.0153
    1W        W30664   5.514   9.204   3.146 -0.0219  0.0522 -0.2566
    1W        W30665  19.431   1.061   0.075  0.1283 -0.0052 -0.2552
    1W        W30666  10.691  20.385   8.315 -0.1488 -0.2443  0.0259
    1W        W30667  25.782   5.002   9.675  0.2662 -0.2146 -0.0078
    1W        W30668  27.745  29.085   9.542 -0.0557 -0.0411  0.1633
    1W        W30669  20.038  18.502   7.789  0.1144 -0.0374 -0.0264
    1W        W30670  26.260  26.090   8.584  0.0610  0.0360 -0.0135
    1W        W30671  19.828  18.415   8.780 -0.0633  0.1375  0.3342
    1W        W30672  28.495  24.127   6.290 -0.0065 -0.2100 -0.1155
    1W        W30673   9.514   3.602   7.008  0.2576  0.1889 -0.2508
    1W        W30674  28.377  23.146   8.099 -0.0197  0.0035  0.0003
    1W        W30675  22.147  26.071   3.588  0.3748  0.3269  0.1100
    1W        W30676  14.341  21.704   9.064 -0.2975  0.1490  0.0378
    1W        W30677  26.381  15.826   7.166 -0.0936 -0.0591 -0.1433
    1W        W30678  21.650  26.411   2.505 -0.0875  0.1019 -0.1903
    1W        W30679  25.580   6.312   1.951 -0.2429 -0.0456  0.1460
    1W        W30680  12.191  11.303   9.188  0.0172 -0.1170  0.1288
    1W        W30681   6.924  21.635   6.924  0.1814 -0.1010  0.2636
    1W        W30682  26.725  26.176   8.593  0.0690 -0.1423  0.0773
    1W        W30683  10.959  16.299   7.759  0.0498 -0.1417 -0.4498
    1W        W30684   4.626   6.504   8.386  0.0096  0.0394  0.0086
    1W        W30685   8.722   7.038   7.278  0.2812 -0.1073  0.1301
    1W        W30686  14.875   9.989   0.222  0.1126 -0.2645  0.0463
    1W        W30687  10.605  22.791   6.331  0.0840 -0.1608 -0.0272
    1W        W30688  22.950  20.852   7.865 -0.0189  0.0888 -0.0398
    1W        W30689  14.898  24.752   8.048  0.0051 -0.2289  0.0902
    1W        W30690   2.989  28.155   6.108  0.0843  0.1903 -0.0885
    1W        W30691  24.449  16.091   9.573  0.1537 -0.2341  0.0869
    1W        W30692  13.756   5.079   6.958 -0.0256  0.3220 -0.2366
    1W        W30693   8.414  16.887   0.692 -0.0411 -0.0475  0.1406
    1W        W30694  15.457   5.862   7.444  0.3753  0.0995  0.1486
    1W        W30695  21.438   2.529   6.996  0.2930  0.2133 -0.1114
    1W        W30696  20.846  24.381   7.416  0.1892 -0.0029  0.1146
    1W        W30697   9.559  23.900   0.790 -0.0158  0.3348 -0.3195
    1W        W30698  16.477  10.127   2.993  0.2471  0.0640  0.0203
    1W        W30699  10.632   0.566   9.094 -0.0683  0.1374  0.0539
    1W        W30700   3.244   1.435   0.435 -0.1988  0.0994  0.0765
    1W        W30701  27.549  27.229   0.820 -0.3980 -0.2870  0.3631
    1W        W30702  25.185  28.157   0.565 -0.0272  0.0812  0.0586
    1W        W30703   0.600  11.585   7.314  0.1328  0.0107  0.0347
    1W        W30704  21.992  13.740   0.507 -0.0214  0.2102  0.1550
    1W        W30705  15.486  14.150   1.454  0.0942  0.0067 -0.0663
    1W        W30706  23.084   8.197   9.617 -0.3692 -0.5469 -0.2270
    1W        W30707  21.890  18.771   8.669  0.0846  0.3185  0.3329
    1W        W30708  17.287  21.480   7.136 -0.0858  0.0993  0.1507
    1W        W30709   4.370  23.302   2.901 -0.0801  0.0832 -0.2222
    1W        W30710   8.225  18.156   7.634 -0.1656 -0.0543  0.1464
    1W        W30711   1.587  17.151   7.464  0.4330  0.0917  0.1945
    1W        W30712  12.696  23.171   8.780 -0.2340  0.1384 -0.0059
    1W        W30713   1.686  17.924   6.271  0.2498 -0.0702  0.0641
    1W        W30714   6.855   4.908   1.811 -0.1796  0.1336 -0.0246
    1W        W30715   9.775  18.056   1.744 -0.0701 -0.2506  0.0961
    1W        W30716   3.813  23.308   0.521 -0.2030 -0.1354 -0.2507
    1W        W30717   5.332  15.982   8.622  0.0097 -0.0748 -0.1584
    1W        W30718  10.680  21.716   8.943 -0.1696 -0.1089  0.2619
    1W        W30719  28.995   0.568   0.722  0.2014  0.0529  0.3632
    1W        W30720  19.186   6.858   9.587 -0.3415  0.0891 -0.1617
    1W        W30721   8.559  25.294   6.523  0.0549 -0.0933 -0.4761
    1W        W30722  24.696   5.835   0.065 -0.3296 -0.0357 -0.0911
    1W        W30723   6.075   2.901   3.244 -0.0613 -0.0110  0.0481
    1W        W30724  24.461  18.150   1.300 -0.0215 -0.1958  0.1216
    1W        W30725  17.234   5.981   8.981 -0.1096 -0.2433 -0.4051
    1W        W30726  25.529   8.113   6.617 -0.0344  0.2466 -0.0217
    1W        W30727  19.348   7.665   7.475  0.2247 -0.1626 -0.1951
    1W        W30728  17.692  19.431   7.868 -0.4806 -0.0829 -0.1660
    1W        W30729  12.461   7.726   8.301 -0.0864 -0.0795  0.4483
    1W        W30730  18.011  12.156   8.600 -0.1820  0.0224 -0.0790
    1W        W30731  19.164  21.102   8.967  0.0909  0.0246 -0.2594
    1W        W30732  12.870  12.722   2.336 -0.5560  0.0594 -0.1623
    1W        W30733  11.548  25.928   9.405 -0.1766 -0.0296 -0.2325
    1W        W30734  26.123   4.236   9.516 -0.2895  0.0852 -0.4577
    1W        W30735   3.028   3.602   6.884  0.1019 -0.0563  0.1533
    1W        W30736   8.821  20.385   6.441 -0.1224  0.1915  0.0252
    1W        W30737  22.158  17.446   1.915  0.0079 -0.0533 -0.0974
    1W        W30738  25.630  26.053   3.904  0.1590  0.0772  0.0480
    1W        W30739  25.364  19.115   9.245  0.1054 -0.2925  0.0107
    1W        W30740  10.446  21.676   0.434 -0.1141  0.3312 -0.0637
    1W        W30741  10.589  19.892   8.165  0.1641  0.0800  0.0963
    1W        W30742  12.478  22.002   7.717 -0.0481 -0.2148  0.1541
    1W        W30743  28.289  26.877   2.341 -0.0807  0.0201 -0.0725
    1W        W30744  22.355   7.049   9.626 -0.0984 -0.0464 -0.4196
    1W        W30745  10.341  13.871   9.075  0.0516 -0.0688 -0.2347
    1W        W30746  23.343  14.830   7.723  0.0715  0.2392 -0.0191
    1W        W30747  24.267  15.239   8.326  0.0080  0.1193 -0.0557
    1W        W30748  15.354  15.791   8.888  0.3288  0.1615 -0.0874
    1W        W30749  17.612   7.604   1.375 -0.2037  0.0229  0.0707
    1W        W30750  24.905   1.507   6.846 -0.0818  0.0004 -0.2940
    1W        W30751   9.605  14.454   2.305 -0.2913  0.0354  0.0017
    1W        W30752  25.527  10.075   0.942  0.2509 -0.1623  0.5459
    1W        W30753   4.627  25.428   9.362  0.0453  0.2806 -0.0415
    1W        W30754   6.394  24.866   1.771 -0.0141  0.1149 -0.1118
    1W        W30755   0.669  25.523   1.661  0.0935  0.0153  0.0387
    1W        W30756  11.634  12.717   7.692  0.2147 -0.2713 -0.0165
    1W        W30757  22.897   5.075   8.236  0.1052 -0.0735  0.0500
    1W        W30758  13.899   4.087   3.438  0.1379 -0.0236  0.2471
    1W        W30759  17.528  13.400   9.441 -0.1545  0.0006  0.2284
    1W        W30760   3.933  27.100   9.282  0.0098 -0.1551  0.0955
    1W        W30761  28.296  22.672   0.883 -0.1605  0.3205  0.0763
    1W        W30762  12.727  12.804   8.470  0.0454 -0.1181 -0.1914
    1W        W30763  23.981   1.139   1.933 -0.3430  0.0122 -0.0373
    1W        W30764   2.515   3.081   6.720  0.2811 -0.0241 -0.0465
    1W        W30765  24.186   1.725   1.097  0.1103 -0.0940 -0.0960
    1W        W30766  27.934  20.764   1.180 -0.2296  0.0644  0.0027
    1W        W30767  17.543  13.445   0.547 -0.0003 -0.0706 -0.1084
    1W        W30768  26.259   1.195   1.052  0.0504  0.0734 -0.1332
    1W        W30769  17.030  23.000   3.231  0.1112 -0.0818  0.0563
    1W        W30770   5.724   0.330   2.510 -0.0914  0.0933  0.1506
    1W        W30771  22.474  18.652   7.436 -0.0400 -0.2628  0.0100
    1W        W30772  27.761  11.108   1.959 -0.2972  0.2249  0.1792
    1W        W30773   0.628   4.963   9.287  0.4543  0.0124 -0.2560
    1W        W30774   8.356  22.089   0.967  0.3267  0.1652  0.0558
    1W        W30775  10.535  11.270   1.976  0.0649  0.0065  0.0931
    1W        W30776  12.645  11.073   9.594 -0.2430  0.1116 -0.0450
    1W        W30777   0.718  17.919   1.138  0.4511 -0.0213  0.1721
    1W        W30778  26.989  16.110   9.674  0.1365  0.2023  0.1826
    1W        W30779   6.282  11.299   9.138  0.1130 -0.0119  0.1530
    1W        W30780   5.396  15.868   7.250 -0.2758 -0.1850  0.0348
    1W        W30781  27.690  12.637   1.088  0.1022 -0.0387  0.0554
    1W        W30782  11.973   7.645   9.367  0.1350  0.3311  0.0391
    1W        W30783  19.133   8.240   9.535  0.0230  0.1523 -0.1227
    1W        W30784   0.422   3.991   2.190  0.0446 -0.0180  0.0206
    1W        W30785   4.878  14.647   8.906  0.1866 -0.1356 -0.1402
    1W        W30786  16.319   4.025   9.560 -0.2251 -0.1451 -0.1399
    1W        W30787  28.831  29.316   6.916 -0.2825 -0.0018 -0.1179
    1W        W30788  21.088   1.650   9.025  0.2938  0.3568  0.0644
    1W        W30789  22.632   6.670   9.456 -0.0573  0.2542 -0.0159
    1W        W30790   4.741   1.572   2.436 -0.3252  0.4784 -0.2081
    1W        W30791  17.827  14.230   7.981  0.0510 -0.2437 -0.1131
    1W        W30792  10.477   2.827   8.753 -0.3825  0.0856  0.2242
    1W        W30793  26.594  22.384   1.452  0.1614  0.1029  0.1926
    1W        W30794  18.532  27.293   8.767 -0.0793  0.1567  0.0355
    1W        W30795  26.408   6.737   6.923 -0.2453  0.1704  0.0108
    1W        W30796   1.048  19.097   7.080 -0.0760  0.2391  0.0304
    1W        W30797  10.706   5.087   2.647  0.0540 -0.3227  0.0002
    1W        W30798   9.612  24.936   9.303 -0.0654 -0.3582 -0.2401
    1W        W30799  26.121  22.897   9.415 -0.0157  0.1150 -0.3304
    1W        W30800   3.681  25.344   8.231 -0.1263  0.2088  0.1429
    1W        W30801  13.098  10.117   8.134 -0.1459 -0.1740  0.1406
    1W        W30802  11.150  20.491   1.165 -0.0638  0.2505  0.2847
    1W        W30803   8.920  17.488   8.786  0.0620 -0.1368 -0.1505
    1W        W30804  20.273   1.843   7.231 -0.3499 -0.1305 -0.0228
    1W        W30805   9.705   8.804   1.199 -0.0274  0.0340 -0.1161
    1W        W30806   0.660   1.856   9.265  0.1624  0.2572  0.1785
    1W        W30807  23.786  18.290   8.051 -0.1483 -0.0770 -0.0767
    1W        W30808  21.055  26.903   1.434 -0.1131 -0.1575 -0.1087
    1W        W30809   3.389   7.541   8.217 -0.3583 -0.1039 -0.1708
    1W        W30810   5.665   4.607   0.537  0.2099  0.0418 -0.1304
    1W        W30811  24.050   8.072   9.545 -0.0058  0.3504  0.0117
    1W        W30812   7.638   6.893   0.054  0.1033 -0.2625 -0.0788
    1W        W30813  28.677   5.507   5.816  0.0921  0.2198 -0.2065
    1W        W30814   3.352  10.531   2.147 -0.0842  0.0061  0.0419
    1W        W30815   4.248  11.441   1.828  0.0614 -0.1088 -0.1470
    1W        W30816   4.085  28.824   2.188  0.0365  0.4232  0.5021
    1W        W30817   8.239  16.169   2.687 -0.1145  0.1526 -0.0594
    1W        W30818  15.373  23.845   7.364 -0.1908 -0.1658 -0.0588
    1W        W30819  11.317  14.448   9.325 -0.0600 -0.1734  0.4580
    1W        W30820  25.298   0.941   1.655 -0.0785 -0.0316  0.0805
    1W        W30821  12.892  16.047   7.971 -0.0479 -0.0719  0.0286
    1W        W30822  22.262  10.547   9.542  0.2954 -0.2501 -0.2142
    1W        W30823   8.708  11.573   7.378  0.1318  0.1418 -0.0581
    1W        W30824   7.856  14.105   0.302 -0.0055 -0.1668  0.0486
    1W        W30825   1.393   2.846   7.663  0.1189  0.1265 -0.0867
    1W        W30826   1.262  29.140   1.193 -0.1934 -0.0798 -0.1838
    1W        W30827  14.764  20.900   2.392 -0.3316 -0.1180 -0.0354
    1W        W30828  25.527   8.462   2.818  0.0922 -0.0822  0.0768
    1W        W30829  28.509  13.913   8.545  0.2166 -0.0194 -0.2416
    1W        W30830  14.994  14.831   7.719 -0.2090  0.2498  0.0306
    1W        W30831  13.726   8.782   0.658 -0.1057 -0.0667  0.1948
    1W        W30832   9.677  16.329   8.298 -0.1006 -0.0144  0.0571
    1W        W30833   6.839  19.729   0.160 -0.1410  0.1842 -0.1862
    1W        W30834  19.915  12.539   7.588  0.2803 -0.1799 -0.0729
    1W        W30835   8.802   6.958   2.223 -0.1048  0.2186 -0.2495
    1W        W30836  15.081  16.124   1.853 -0.1484 -0.0823 -0.0024
    1W        W30837  12.271   5.114   8.942 -0.2987 -0.4676  0.2424
    1W        W30838   2.518  20.034   8.400  0.3207 -0.0377  0.1506
    1W        W30839  20.151  25.651   7.646  0.2473 -0.0287  0.1538
    1W        W30840  21.295  28.823   1.245  0.0011 -0.4093  0.3129
    1W        W30841   6.001  16.693   2.679 -0.4285  0.1997 -0.0368
    1W        W30842  24.597  12.472   8.908 -0.1702  0.1461  0.0514
    1W        W30843  22.504  18.740   2.152  0.0695  0.1527 -0.1652
    1W        W30844  25.852  13.110   8.098  0.0241 -0.1007  0.1321
    1W        W30845  26.306   0.009   8.877 -0.0307  0.3931 -0.4616
    1W        W30846  22.719  25.626   2.017  0.3503 -0.1620  0.0944
    1W        W30847  26.430   1.978   7.132  0.1682  0.1783 -0.2634
    1W        W30848  19.522  19.958   8.634  0.2937  0.2634  0.0439
    1W        W30849  22.785   9.693   9.671 -0.0218 -0.1184  0.1211
    1W        W30850  15.096  21.883   8.708 -0.2681 -0.3167 -0.1449
    1W        W30851  11.313  25.296   9.569 -0.0909 -0.1124 -0.1170
    1W        W30852  29.065  24.137   7.010 -0.0444  0.2917 -0.1371
    1W        W30853   9.675  11.815   8.770 -0.0082  0.3527  0.0353
    1W        W30854   3.167  24.789   2.426  0.0976 -0.0435 -0.1139
    1W        W30855  26.672   4.572   7.687  0.0174  0.1429  0.0683
    1W        W30856   6.289  18.456   1.228  0.1626  0.1985 -0.2417
    1W        W30857  10.465  18.056   2.290  0.0166 -0.4352  0.1138
    1W        W30858   6.808  22.311   0.224 -0.1105 -0.1798 -0.1514
    1W        W30859  28.285  16.826   8.838 -0.3361 -0.2712  0.0598
    1W        W30860  13.773   8.028   9.385  0.1129 -0.1398 -0.0451
    1W        W30861   3.968  21.008   2.493 -0.0050  0.2576 -0.0601
    1W        W30862  17.051  26.367   9.527  0.1506 -0.1518 -0.0334
    1W        W30863  24.836   8.325   9.182  0.0523  0.2311  0.0113
    1W        W30864  26.165  29.260   7.703  0.0425 -0.0696  0.0972
    1W        W30865   6.074  16.560   5.743 -0.1898  0.0441  0.3425
    1W        W30866  22.614  10.226   9.651 -0.0174  0.2258 -0.2176
    1W        W30867  21.765   8.010   9.288 -0.0514 -0.0375  0.0317
    1W        W30868   1.710  17.600   1.896  0.1609 -0.0613  0.0237
    1W        W30869  24.298   8.696   6.752 -0.4377 -0.1309 -0.1001
    1W        W30870  17.960   5.796   9.312  0.0301  0.1363  0.1872
    1W        W30871   0.773  27.293   0.070  0.0134 -0.0798 -0.0919
    1W        W30872  16.075  24.104   1.405 -0.0427 -0.0975  0.0148
    1W        W30873  21.896  28.795   1.878  0.1144 -0.1461 -0.3456
    1W        W30874  19.462  17.439   2.147 -0.0470  0.0659 -0.0533
    1W        W30875  20.881  22.643   1.262 -0.0577  0.0535  0.0755
    1W        W30876  27.004  26.720   0.192 -0.0461  0.1878  0.1834
    1W        W30877  14.153  25.014   0.221 -0.0789  0.1972 -0.1003
    1W        W30878  23.308   6.729   0.437  0.2440 -0.2060  0.0767
    1W        W30879  12.367   2.287   2.014 -0.0834 -0.0332 -0.0811
    1W        W30880  18.886   1.517   3.105  0.3352  0.1450 -0.5162
    1W        W30881  13.415  28.642   2.510  0.1399 -0.1010 -0.0592
    1W        W30882  26.581  12.757   8.069  0.0859  0.0861  0.0939
    1W        W30883   2.237  19.248   1.421 -0.1617 -0.0407  0.2616
    1W        W30884  26.642  17.889   7.971 -0.1915  0.2774 -0.0619
    1W        W30885  21.354  25.350   8.683 -0.3061 -0.0968 -0.1472
    1W        W30886   7.214  14.786   9.535 -0.2752  0.0335  0.0631
    1W        W30887   3.707   3.470   1.654  0.0148 -0.2570 -0.2267
    1W        W30888  13.155  11.524   8.029 -0.4023  0.0099 -0.1759
    1W        W30889  20.469  25.622   8.066 -0.1397 -0.2007 -0.1790
    1W        W30890  28.764   9.679   7.399 -0.3682  0.5517 -0.2174
    1W        W30891   0.761   0.031   2.461 -0.1244  0.1371 -0.0985
    1W        W30892   6.635  25.428   7.724  0.1316  0.1417  0.0192
    1W        W30893  18.385   5.458   9.078 -0.0515 -0.1501 -0.0431
    1W        W30894   9.981   8.474   1.484 -0.0179 -0.1352  0.0241
    1W        W30895  14.255  20.726   1.535 -0.0683  0.0376 -0.1702
    1W        W30896   1.200  25.540   7.325  0.2091  0.1891  0.0649
    1W        W30897  20.297   6.867   1.020  0.2850  0.2089  0.1028
    1W        W30898  29.145  11.682   9.242 -0.1446  0.1542 -0.0318
    1W        W30899  19.790  24.498   2.240 -0.1268  0.0728  0.1394
    1W        W30900  25.654  24.374   0.308 -0.3264  0.4375  0.0495
    1W        W30901  11.496  17.017   0.622  0.0860  0.0147 -0.0394
    1W        W30902   7.897  20.403   6.582  0.1463  0.1636  0.1164
    1W        W30903   0.835  10.329   0.918  0.0481  0.2261 -0.1760
    1W        W30904  11.869  27.483   1.126 -0.2092  0.0282  0.0816
    1W        W30905  25.795   0.451   2.517  0.1650 -0.0463  0.0212
    1W        W30906  19.875   0.633   1.543  0.3597 -0.0740  0.0448
    1W        W30907  27.223  27.116   0.463 -0.1402  0.1203 -0.4042
    1W        W30908  17.482   8.080   0.876  0.1633 -0.2444 -0.1788
    1W        W30909  10.594  10.009   9.097  0.1708 -0.0618  0.1714
    1W        W30910   0.637   4.093   6.988  0.1158  0.0228  0.0125
    1W        W30911  20.469   0.530   0.824  0.0585 -0.1422  0.1304
    1W        W30912   7.240  14.802   1.769  0.0521  0.0808  0.2671
    1W        W30913   5.764   8.802   2.828  0.5264 -0.0187 -0.2006
    1W        W30914  24.373  26.014   7.298 -0.7242 -0.0877 -0.0078
    1W        W30915  15.519   2.886   2.338  0.1118  0.2519 -0.0499
    1W        W30916   5.309   5.227   6.417 -0.4364 -0.3088 -0.1781
    1W        W30917  13.661  29.343   9.277 -0.0749 -0.1969  0.2066
    1W        W30918  25.782   9.834   8.047 -0.1933  0.0915 -0.1044
    1W        W30919   2.106  20.397   8.586  0.1775 -0.2894 -0.2171
    1W        W30920  17.243  24.160   6.742 -0.1869  0.2712  0.0694
    1W        W30921  21.045  16.682   1.610 -0.0714  0.0274  0.0734
    1W        W30922  22.358   7.105   3.554 -0.0993  0.2687  0.2056
    1W        W30923  22.651   3.981   2.721 -0.0181 -0.1210 -0.1403
    1W        W30924  16.814   7.414   9.608 -0.6968 -0.0630  0.1411
    1W        W30925  25.467  18.421   1.093  0.1600  0.1045  0.0327
    1W        W30926   3.165   5.128   7.905 -0.1401 -0.0303  0.5103
    1W        W30927  20.561   3.326   8.088  0.2829 -0.1424  0.1526
    1W        W30928  12.854  14.962   7.345 -0.1829  0.2223 -0.3211
    1W        W30929   6.486  21.807   9.152 -0.1366 -0.0500 -0.2396
    1W        W30930  22.420  13.103   7.597 -0.3167 -0.1292 -0.0894
    1W        W30931   3.014  15.561   0.861  0.1929  0.0537  0.0586
    1W        W30932  24.151   1.946   8.612  0.2695  0.2148 -0.3713
    1W        W30933  14.663   3.089   2.073 -0.0813 -0.1775 -0.1381
    1W        W30934  23.984  12.751   7.912 -0.0061  0.1133  0.1228
    1W        W30935  28.481   9.867   0.209 -0.0565  0.0280 -0.4190
    1W        W30936  24.902  16.327   1.535 -0.2639  0.1183 -0.1428
    1W        W30937  21.651   3.059   3.126  0.1255  0.1401  0.1936
    1W        W30938  15.364  29.345   7.555 -0.2273 -0.2208  0.1106
    1W        W30939  26.863   6.944   7.630  0.0762  0.3504 -0.1192
    1W        W30940   8.001  26.901   8.746 -0.1915  0.1523  0.0220
    1W        W30941   0.412  20.500   8.199 -0.2450  0.4362 -0.2044
    1W        W30942  28.546  10.405   6.950 -0.2930 -0.2460  0.2117
    1W        W30943   1.552  25.042   7.926 -0.2122  0.0497 -0.0735
    1W        W30944  16.331   7.553   2.560  0.1068 -0.1637 -0.0495
    1W        W30945  22.599   4.460   2.453 -0.1040 -0.1652  0.1956
    1W        W30946  28.702  20.823   6.748  0.0490  0.3256 -0.0321
    1W        W30947  26.173  11.763   0.902  0.0121  0.0399 -0.0409
    1W        W30948  26.423  18.691   6.091 -0.0766 -0.1255 -0.3073
    1W        W30949  15.842   1.918   0.465 -0.0993  0.1602  0.2365
    1W        W30950  23.380  10.592   7.985 -0.1445 -0.2290 -0.2425
    1W        W30951  25.859   0.784   1.054  0.1762  0.0790 -0.2020
    1W        W30952   8.516  20.154   0.616 -0.0501  0.0274 -0.0196
    1W        W30953   5.784  11.319   9.184 -0.4078 -0.1758 -0.1096
    1W        W30954  22.302  25.889   1.804  0.0730  0.1088  0.0505
    1W        W30955   1.510  22.056   9.156  0.0534 -0.1442  0.0259
    1W        W30956  24.727   6.522   6.397  0.0640  0.0664 -0.2718
    1W        W30957  26.899  19.801   7.269  0.0329 -0.0087  0.1717
    1W        W30958  20.642  15.198   1.034 -0.0454  0.1791  0.1099
    1W        W30959   8.064  12.850   7.218 -0.0923  0.1007  0.1812
    1W        W30960  20.767  14.356   6.838  0.0177 -0.2811  0.2754
    1W        W30961   1.989  13.057   6.395  0.0088  0.3340 -0.0845
    1W        W30962  26.649   8.737   2.334  0.0161 -0.0564 -0.0689
    1W        W30963  21.240   3.851   9.328  0.0156 -0.0721 -0.2192
    1W        W30964  23.312  28.394   7.107  0.2456  0.2506 -0.1220
    1W        W30965  17.403  12.022   8.620 -0.0967  0.1581 -0.1307
    1W        W30966  20.934  22.566   8.391  0.0420 -0.5008 -0.2618
    1W        W30967   4.145  26.239   7.586 -0.1417  0.2265 -0.2504
    1W        W30968  21.202   9.185   6.908 -0.4433 -0.0601 -0.0787
    1W        W30969   0.118  24.631   1.118 -0.2366 -0.0440 -0.0773
    1W        W30970  16.640  17.404   1.766 -0.2258  0.0654  0.2020
    1W        W30971   7.040   9.540   1.339 -0.2031  0.0945 -0.2243
    1W        W30972  21.471   4.763   7.343  0.2008 -0.0574 -0.1327
    1W        W30973  18.054  17.312   2.946 -0.0414  0.0902 -0.1971
    1W        W30974  17.613  21.819   8.980  0.1016  0.0563 -0.4016
    1W        W30975  21.010  10.109   8.923  0.0192 -0.1345 -0.0408
    1W        W30976  22.112   8.058   0.023 -0.0914 -0.2522 -0.2529
    1W        W30977   1.713   0.062   7.610 -0.2744 -0.0054 -0.2089
    1W        W30978  16.434  20.831   7.322 -0.0828  0.0469  0.0745
    1W        W30979  24.569   1.681   1.477 -0.0144 -0.2082  0.0495
    1W        W30980   5.600  10.872   0.453  0.0527 -0.0003 -0.1932
    1W        W30981   4.433  13.382   9.283  0.0631  0.1202  0.0877
    1W        W30982  26.869  13.203   6.584 -0.0583 -0.2624  0.1137
    1W        W30983  23.921  24.489   1.941 -0.0191 -0.0568  0.3601
    1W        W30984   3.262  26.948   3.389 -0.0697  0.2452 -0.0101
    1W        W30985   0.358   2.738   0.482  0.2126 -0.1249 -0.0006
    1W        W30986   4.079   7.701   0.818 -0.2946  0.2145 -0.3210
    1W        W30987  24.679  12.915   6.158 -0.0905 -0.0110 -0.2115
    1W        W30988   3.635  18.375   9.343 -0.0833  0.2575 -0.1343
    1W        W30989   2.548   3.777   7.065 -0.1433  0.2032  0.2312
    1W        W30990  11.880   0.889   4.128 -0.0739 -0.0380 -0.0351
    1W        W30991  18.984  24.598   6.810 -0.1087  0.1797  0.2480
    1W        W30992   0.906  14.663   1.506 -0.3300 -0.0690 -0.2765
    1W        W30993   4.695  14.336   0.119 -0.3156 -0.0025  0.1610
    1W        W30994  22.309  22.604   2.690  0.0378  0.1813  0.1240
    1W        W30995  15.282  14.449   1.863 -0.0216  0.1666  0.2108
    1W        W30996  12.414  11.033   8.817 -0.2706 -0.0854  0.3352
    1W        W30997  28.728   1.847   8.661  0.0940 -0.4533 -0.1325
    1W        W30998   2.220  16.995   7.497 -0.0408 -0.0119  0.1376
    1W        W30999  24.797  11.821   7.054 -0.3179 -0.0698 -0.2894
    1W        W31000   0.693   6.028   0.351 -0.4250 -0.1198 -0.0152
    1W        W31001  11.322  15.901   7.854  0.1300  0.3607  0.2780
    1W        W31002  19.256  14.339   8.783 -0.1678  0.1587 -0.1976
    1W        W31003  12.823  29.251   0.861 -0.0223  0.3120 -0.0951
    1W        W31004   1.866  26.635   0.727  0.1300 -0.0656 -0.0318
    1W        W31005  19.002   1.869   0.477  0.0748  0.4191  0.0960
    1W        W31006   6.307   2.574   1.763 -0.2268 -0.2208 -0.0972
    1W        W31007   6.943  12.471   2.493  0.1459  0.0070  0.0510
    1W        W31008   0.024  23.891   2.967  0.0502  0.1965  0.1465
    1W        W31009  14.375  23.257   2.656  0.1424 -0.0610  0.1710
    1W        W31010  24.332   7.495   8.215  0.2415  0.2920 -0.2470
    1W        W31011   8.646  26.821   7.464  0.0406 -0.2510  0.4702
    1W        W31012  14.753   3.402   3.902  0.0977  0.2007  0.0636
    1W        W31013  10.391  27.478   3.767 -0.0168 -0.0101  0.1892
    1W        W31014  23.154   0.075   1.530  0.0020 -0.4398 -0.0026
    1W        W31015   4.956  18.794   0.166  0.1477  0.1149  0.3649
    1W        W31016  12.499  25.458   0.223  0.1552  0.0907 -0.1246
    1W        W31017   3.957  14.095   6.186 -0.0022  0.0044 -0.0627
    1W        W31018  21.001  28.173   2.579  0.1059  0.3995 -0.2556
    1W        W31019  18.576  22.457   2.588  0.0568  0.0997 -0.1428
    1W        W31020  26.013   4.806   1.955  0.1630  0.1636  0.3183
    1W        W31021  26.595  29.260   7.391 -0.0049  0.0436  0.1926
    1W        W31022   2.902  28.315   7.938 -0.0417  0.0395 -0.2147
    1W        W31023  24.636   8.158   9.652 -0.1886 -0.2049  0.1842
    1W        W31024  16.240  11.576   8.223 -0.0458 -0.0046 -0.2817
    1W        W31025  27.241  20.098   2.467  0.2000 -0.0285  0.2055
    1W        W31026  19.753   5.858   1.394 -0.2444  0.0352 -0.0291
    1W        W31027   1.056  19.996   0.965  0.2053  0.3264  0.0473
    1W        W31028  14.617   7.178   2.484  0.0151  0.3006 -0.4397
    1W        W31029  27.223   8.791   6.509  0.1175 -0.0515 -0.0362
    1W        W31030  18.562   2.627   6.907 -0.2468 -0.1857 -0.0333
    1W        W31031   9.480   8.872   7.247  0.0843  0.2485 -0.0492
    1W        W31032   5.511  28.508   1.075  0.2009  0.2242  0.2388
    1W        W31033   6.250   4.856   2.212 -0.1594 -0.2027  0.2152
    1W        W31034  13.839   6.618   2.450 -0.1571  0.2050  0.1167
    1W        W31035  12.907  12.090   7.916  0.0797  0.1724  0.0242
    1W        W31036   4.839  13.133   0.262 -0.0521 -0.2014  0.1807
    1W        W31037  26.827  27.573   1.395 -0.1774  0.1051 -0.1903
    1W        W31038   2.838  25.382   7.886 -0.0123 -0.0754  0.0146
    1W        W31039  20.003  23.817   0.179 -0.0570 -0.1821 -0.0863
    1W        W31040   2.549  18.334   1.147  0.2421 -0.1319 -0.1772
    1W        W31041  14.537   6.881   2.947 -0.0032  0.2113  0.0403
    1W        W31042  14.113   5.898   8.257  0.0849  0.1938  0.4311
    1W        W31043  16.453  24.355   1.748 -0.1158 -0.0445  0.1411
    1W        W31044   8.739  23.760   8.172  0.0056  0.0581 -0.1377
    1W        W31045  21.340  15.917   9.025 -0.0586  0.1308  0.1365
    1W        W31046   9.459  27.792   3.458 -0.1444  0.0012  0.2840
    1W        W31047  12.387  11.767   1.212 -0.1018  0.1278 -0.1435
    1W        W31048   0.856   4.666   7.621 -0.1941  0.0986  0.1097
    1W        W31049  27.810  13.223   9.298  0.0973  0.2018 -0.0547
    1W        W31050   3.682  12.539   2.391  0.3383 -0.1299  0.0073
    1W        W31051   1.938  12.558   7.998  0.0080  0.1660  0.0876
    1W        W31052  28.368   6.365   9.637 -0.1527 -0.1288 -0.0803
    1W        W31053  20.745  13.199   7.346 -0.2881  0.0605 -0.2387
    1W        W31054   9.030   1.142   2.577 -0.3368  0.3659  0.1652
    1W        W31055  24.533   5.481   7.002  0.2292 -0.1625 -0.2422
    1W        W31056   1.881  26.877   8.289 -0.1163  0.0615 -0.0065
    1W        W31057  20.765  19.708   7.588  0.1112 -0.0777 -0.1099
    1W        W31058  28.680  11.166   3.206 -0.1951 -0.3710 -0.0053
    1W        W31059   6.171  12.335   9.215  0.2512  0.0641  0.0150
    1W        W31060  24.437   4.139   6.014  0.1192 -0.0438  0.1786
    1W        W31061   8.767  25.889   0.945  0.0002  0.0095 -0.0368
    1W        W31062   1.356  12.419   7.400 -0.1183  0.1003 -0.1773
    1W        W31063  14.076  21.545   8.726  0.1818 -0.0212 -0.2300
    1W        W31064   5.577   6.528   2.471  0.1178 -0.0205  0.3304
    1W        W31065  21.258   8.105   0.450  0.0444  0.2103  0.2757
    1W        W31066  18.295  22.198   2.067 -0.2837  0.3685  0.0080
    1W        W31067  16.839  12.308   0.729  0.1240  0.1011  0.0954
    1W        W31068   5.654   4.008   8.266 -0.1677  0.2707 -0.1629
    1W        W31069   4.969  27.817   7.348  0.0255 -0.1198 -0.1242
    1W        W31070  23.684   2.605   7.598 -0.0197 -0.0702  0.3425
    1W        W31071  18.918   5.927   7.807  0.0532 -0.1508  0.1870
    1W        W31072   0.964   7.471   9.355  0.0979 -0.0427 -0.0945
    1W        W31073  27.987   1.715   2.281  0.1637 -0.3768 -0.0963
    1W        W31074   5.094  28.196   6.749 -0.2197  0.3290 -0.1036
    1W        W31075   4.266  13.616   8.550  0.0354 -0.2699  0.3826
    1W        W31076   2.374   0.849   8.501 -0.1490  0.0635 -0.2944
    1W        W31077  14.451   8.389   1.433  0.0819 -0.2083  0.0230
    1W        W31078   1.925   0.545   1.613  0.1575  0.2161 -0.3336
    1W        W31079  19.930  19.990   0.763 -0.1373  0.1424 -0.1906
    1W        W31080  23.773   5.772   1.768  0.0593  0.0061  0.0413
    1W        W31081  18.331  24.324   7.541  0.2218  0.0395  0.0437
    1W        W31082  23.565  24.924   2.891 -0.0552 -0.1746  0.1080
    1W        W31083  13.769  23.259   1.327  0.1969 -0.1150 -0.0067
    1W        W31084  21.818  11.402   1.532 -0.2171  0.0711 -0.0081
    1W        W31085  28.118  27.194   1.570  0.4387 -0.0073 -0.2947
    1W        W31086  28.456  28.978   0.039 -0.0097  0.0380 -0.0781
    1W        W31087  22.371  15.473   2.078  0.1199 -0.1550 -0.1539
    1W        W31088   6.945  11.297   2.476  0.1537  0.2593  0.0741
    1W        W31089  27.194  23.087   1.310 -0.2742  0.2196  0.2797
    1W        W31090  27.034  17.086   6.495 -0.0059  0.3767 -0.0621
    1W        W31091  24.501  12.801   8.571 -0.0108 -0.1861  0.0537
    1W        W31092  14.799  23.831   8.772  0.0547  0.0926 -0.1182
    1W        W31093   0.318  18.427   2.330 -0.2985 -0.2838 -0.0014
    1W        W31094  12.179  15.727   7.609  0.0202 -0.0346 -0.3502
    1W        W31095  17.409  22.425   1.002  0.2668  0.0537  0.0287
    1W        W31096  11.293  20.619   6.900  0.0473  0.1638  0.1037
    1W        W31097  16.690   4.163   8.218 -0.1066 -0.1698 -0.0497
    1W        W31098   3.406  20.984   8.694  0.2025  0.0061 -0.0932
    1W        W31099  23.586  28.558   0.665 -0.1776  0.4476 -0.1696
    1W        W31100  25.928  13.502   0.006  0.0001 -0.1101  0.0161
    1W        W31101  20.698  10.001   7.295  0.3563  0.3108 -0.0570
    1W        W31102  14.679  26.587   9.121 -0.0501  0.1032  0.0159
    1W        W31103  22.037  23.804   7.276  0.0813 -0.0064 -0.2672
    1W        W31104  23.353   1.913   1.539  0.2249 -0.2060  0.2109
    1W        W31105   5.443  26.068   2.153  0.0255  0.2033  0.4225
    1W        W31106  13.212   5.548   8.710  0.0164  0.0151  0.2346
    1W        W31107  26.916   9.967   7.630 -0.3675 -0.2248 -0.4327
    1W        W31108   3.551  15.294   7.203  0.1739 -0.0591  0.0838
    1W        W31109   7.536  23.324   0.397  0.0312 -0.1927  0.1272
    1W        W31110  24.431  17.117   9.391 -0.2561  0.0815  0.2431
    1W        W31111   4.486  12.461   0.136  0.1321  0.0583  0.0341
    1W        W31112  12.005  20.760   0.777 -0.0775 -0.2144  0.0591
    1W        W31113  22.393  11.143   7.500  0.1421  0.0641  0.1172
    1W        W31114   4.866   9.881   0.064  0.0941  0.0049  0.4525
    1W        W31115  15.138  29.288   9.277 -0.0713  0.1261 -0.1592
    1W        W31116  29.014  15.971   7.326 -0.1028  0.0569 -0.2102
    1W        W31117  17.577  24.954   0.143 -0.2699  0.2977 -0.0451
    1W        W31118  15.790  12.010   7.602  0.1582 -0.0505 -0.1630
    1W        W31119  14.512  19.704   2.348  0.2688 -0.0146 -0.1880
    1W        W31120  21.845  24.034   7.701  0.1120  0.0178 -0.3387
    1W        W31121  12.434  14.493   8.379  0.1856  0.1211  0.0790
    1W        W31122  25.806  27.946   0.050  0.2485  0.4909  0.2959
    1W        W31123   1.104  19.646   8.936 -0.0771 -0.0839 -0.2316
    1W        W31124  13.400  23.098   8.791  0.0304 -0.1646 -0.2672
    1W        W31125  28.940  14.000   6.125  0.0340 -0.0902 -0.1063
    1W        W31126   6.395   8.312   9.431 -0.1762 -0.2027  0.0070
    1W        W31127   4.481  22.003   6.525 -0.2423  0.0373 -0.0517
    1W        W31128  10.496   2.215   1.568 -0.0351  0.0737  0.2618
    1W        W31129  28.155  10.069   9.027 -0.3052  0.0081  0.2893
    1W        W31130  22.531  17.143   6.532 -0.0323 -0.1820 -0.4272
    1W        W31131   9.231  22.945   8.807  0.2827  0.1824 -0.3177
    1W        W31132  28.166  21.433   2.677  0.0642 -0.0341  0.0841
    1W        W31133   1.777   2.816   0.771 -0.0144  0.1249  0.0708
    1W        W31134  25.658   6.730   0.921  0.1729 -0.2912 -0.2500
    1W        W31135   9.486   1.845   2.160  0.1662 -0.3288  0.0413
    1W        W31136   0.822  12.841   8.190 -0.0849  0.1596  0.1537
    1W        W31137  25.951  29.350   1.746  0.0875 -0.0514 -0.0492
    1W        W31138   0.316  27.652   2.036 -0.1810 -0.2839  0.2413
    1W        W31139  19.075  11.125   1.378  0.1524 -0.1693  0.1317
    1W        W31140  11.258   0.126   7.458  0.0173 -0.2517 -0.0030
    1W        W31141  17.448  27.264   8.103  0.1870 -0.1936 -0.0750
    1W        W31142   1.424   7.296   7.743  0.2529 -0.1877  0.0135
    1W        W31143  19.496   9.940   6.926 -0.1549 -0.1957  0.1459
    1W        W31144   0.860  26.383   7.227 -0.0332 -0.0619  0.0051
    1W        W31145  21.139  20.184   1.282  0.1426  0.0143  0.2152
    1W        W31146  27.789   0.104   7.527 -0.0813  0.0322 -0.0754
    1W        W31147  20.198  22.876   0.629 -0.1810 -0.0385 -0.4794
    1W        W31148  14.145   7.587   0.365 -0.2130  0.4446  0.0411
    1W        W31149  21.549  28.041   1.669 -0.3742  0.4431  0.0432
    1W        W31150  19.531   7.308   1.548  0.1637 -0.0866 -0.3553
    1W        W31151   1.818  25.832   6.541  0.1206 -0.1554  0.1216
    1W        W31152  17.191   1.718   7.881 -0.2161  0.0214  0.1209
    1W        W31153   2.916   8.786   8.625 -0.0604  0.0154  0.2366
    1W        W31154  25.271  16.596   1.263 -0.1845  0.1713 -0.1588
    1W        W31155  20.150  21.560   7.205  0.4242  0.0954 -0.2519
    1W        W31156  23.745  18.990   8.698  0.0137  0.2305 -0.0223
    1W        W31157  11.499   4.592   8.471 -0.4271  0.1273  0.0756
    1W        W31158  25.427   0.405   7.181 -0.1502 -0.0795  0.3286
    1W        W31159   4.238  26.927   2.072 -0.1541  0.2741  0.3104
    1W        W31160  26.347  27.875   7.313 -0.1274 -0.0303  0.0374
    1W        W31161   4.473  28.349   2.185 -0.2089  0.1444 -0.0687
    1W        W31162  28.475   3.662   1.461  0.0299  0.2958 -0.0705
    1W        W31163   9.575  15.987   7.983 -0.3454  0.0134 -0.0970
    1W        W31164  21.767   3.564   0.035 -0.1041 -0.1443  0.1149
    1W        W31165   8.859  26.846   6.995  0.0194  0.1416  0.1220
    1W        W31166  12.580  19.971   1.141 -0.1784  0.2046 -0.2375
    1W        W31167  25.155  23.781   8.664  0.0355  0.2613  0.1136
    1W        W31168   9.602   8.285   1.747  0.0321 -0.0042  0.2530
    1W        W31169  19.475  28.748   2.606 -0.3634 -0.0823 -0.1769
    1W        W31170   3.945  11.172   1.459 -0.0197 -0.0141  0.1101
    1W        W31171  26.956   6.505   9.560 -0.0384 -0.3433  0.1178
    1W        W31172  19.063  20.190   1.568 -0.0973 -0.2032  0.1002
    1W        W31173   5.972   3.440   6.659 -0.1464  0.0488  0.3269
    1W        W31174  19.204  11.492   8.119 -0.2596 -0.2155  0.1313
    1W        W31175  20.157   5.433   9.023 -0.0788 -0.4573  0.3903
    1W        W31176  25.219   3.647   6.674 -0.1383 -0.0602  0.2396
    1W        W31177  15.775  13.514   0.353 -0.0254 -0.1279  0.1167
    1W        W31178   4.440  22.883   7.730 -0.1397 -0.1450  0.2359
    1W        W31179   7.541  16.797   9.484  0.1176 -0.0439  0.0138
    1W        W31180   1.917  22.359   6.433  0.1839  0.0858  0.0121
    1W        W31181  11.245   9.236   0.993  0.1542  0.1329 -0.0179
    1W        W31182   2.196  24.727   8.916  0.0925 -0.0129 -0.1955
    1W        W31183  14.436   2.847   9.023  0.1811 -0.1480 -0.1578
    1W        W31184   9.230  25.374   8.335 -0.0934  0.0507  0.2030
    1W        W31185   7.232  18.252   5.955 -0.1614 -0.1708 -0.0164
    1W        W31186  22.484   9.917   0.365  0.3477  0.5024 -0.0684
    1W        W31187  19.528  28.021   7.550  0.0182 -0.1542 -0.0634
    1W        W31188   0.463  27.303   0.552 -0.3179 -0.1760 -0.1692
    1W        W31189  16.163  18.957   7.487  0.0819 -0.1444 -0.1007
    1W        W31190  16.802  19.404   8.182  0.0910  0.0113 -0.0817
    1W        W31191  11.888  20.240   0.686 -0.0915 -0.2986  0.1709
    1W        W31192  22.554  28.935   9.525  0.1994  0.0308 -0.3919
    1W        W31193   3.508   4.668   2.519  0.1092  0.1006 -0.2653
    1W        W31194  18.972   2.862   0.704 -0.0649 -0.0819 -0.0447
    1W        W31195   3.631  20.948   9.679  0.0403  0.0791 -0.1306
    1W        W31196   5.423  19.285   1.965  0.2514 -0.0414 -0.1789
    1W        W31197  28.172  24.399   1.539  0.1649 -0.0757 -0.0162
    1W        W31198  11.940  21.261   1.172 -0.2300 -0.1158 -0.0368
    1W        W31199   5.304  18.842   5.150 -0.0624  0.0502 -0.1180
    1W        W31200  24.156  24.971   2.077 -0.0280  0.1076  0.1379
    1W        W31201   1.099  21.512   1.753  0.1187 -0.0503 -0.0519
    1W        W31202   4.812  16.364   1.337 -0.0482  0.0007  0.0517
    1W        W31203   5.172  12.973   1.479  0.0144  0.2198 -0.0777
    1W        W31204  16.439  28.292   9.404 -0.0937 -0.0435  0.2109
    1W        W31205  10.717   7.131   3.392  0.2472  0.1260 -0.3226
    1W        W31206   0.444  26.017   3.286  0.4338 -0.1540 -0.2208
    1W        W31207  25.374   0.384   2.313 -0.4588  0.1536 -0.0229
    1W        W31208  23.265   5.368   7.073  0.0952  0.0143 -0.1201
    1W        W31209  24.085  15.574   0.374 -0.0794 -0.0796 -0.0178
    1W        W31210  20.096  14.701   7.924 -0.0228  0.2050  0.0259
    1W        W31211   3.934   3.298   8.916  0.2077  0.1732 -0.0874
    1W        W31212  24.799  28.219   0.083 -0.0595 -0.0270  0.1158
    1W        W31213  21.407  10.645   2.750 -0.1559  0.3170  0.0664
    1W        W31214  24.273   3.211   0.466  0.0170 -0.0899  0.2022
    1W        W31215  27.522   5.859   1.707  0.0850 -0.2969 -0.2290
    1W        W31216  17.382  20.354   2.973  0.1164  0.1369 -0.1603
    1W        W31217   9.466  13.503   0.665 -0.1332  0.0221 -0.1828
    1W        W31218  24.694  13.006   0.400  0.4355 -0.0473 -0.3686
    1W        W31219   7.237  20.610   1.109 -0.0712 -0.1067  0.0385
    1W        W31220  17.516   9.194   8.387  0.0717 -0.2783  0.2289
    1W        W31221   3.561  14.087   1.365 -0.1823 -0.1544 -0.2641
    1W        W31222   5.654   3.755   6.830  0.1496  0.2093  0.3763
    1W        W31223   4.428   3.623   6.423 -0.1432 -0.2413  0.3944
    1W        W31224  26.935  11.316   6.677 -0.1241  0.0672 -0.1086
    1W        W31225  21.272  14.209   2.484 -0.1524 -0.0893 -0.0796
    1W        W31226   9.349  20.515   2.045 -0.3187  0.0763 -0.0170
    1W        W31227  14.443  10.423   8.407  0.2609 -0.1210 -0.0523
    1W        W31228   7.819  24.296   6.955 -0.2199 -0.1266 -0.3002
    1W        W31229  23.955  17.829   6.706  0.0923 -0.2578  0.0524
    1W        W31230   2.774  28.205   9.367  0.1372 -0.4743  0.0199
    1W        W31231   3.965   4.633   2.189 -0.1101  0.1639  0.3604
    1W        W31232   2.380   7.058   9.160 -0.0740 -0.0597 -0.0414
    1W        W31233   0.635  12.072   7.515 -0.2308 -0.2691 -0.0816
    1W        W31234  25.279  25.807   3.524 -0.0888  0.0503  0.0735
    1W        W31235  14.457   2.203   7.710 -0.1629 -0.3373 -0.0994
    1W        W31236  23.721  18.789   1.444  0.0402  0.3758  0.2225
    1W        W31237  16.007   2.695   9.179 -0.3615 -0.2103  0.0385
    1W        W31238  24.930  12.178   6.278 -0.1045 -0.0748  0.6794
    1W        W31239   5.970  12.734   9.477  0.1794  0.2014  0.3937
    1W        W31240  19.478  23.490   1.257 -0.0656 -0.1251  0.1026
    1W        W31241  13.434   8.432   1.647 -0.1676 -0.2676 -0.1677
    1W        W31242  11.467  28.299   9.545  0.0463  0.2924 -0.1316
    1W        W31243  19.188  14.444   2.081  0.2140  0.0182  0.0376
    1W        W31244   9.804  16.084   9.351 -0.2932  0.0393  0.2654
    1W        W31245  19.995  24.822   1.514 -0.0708  0.1510 -0.0771
    1W        W31246  17.225  11.043   0.077 -0.2718 -0.2309  0.3322
    1W        W31247   4.925  24.526   1.714 -0.0275 -0.3540  0.3059
    1W        W31248  12.954   4.465   9.041  0.2025  0.2315  0.3248
    1W        W31249   7.450  29.117   3.810  0.0770 -0.3037 -0.1744
    1W        W31250   5.277   1.661   2.506 -0.0296 -0.0455 -0.0242
    1W        W31251   7.688   1.842   0.836 -0.0001  0.0823 -0.2614
    1W        W31252  22.446   9.772   2.632  0.0137 -0.1347  0.0049
    1W        W31253   8.682  23.540   2.712  0.1168  0.1060 -0.0313
    1W        W31254   7.460  17.772   1.626 -0.1482 -0.0598 -0.1726
    1W        W31255   3.235  20.164   0.375  0.2006  0.1239  0.0493
    1W        W31256  12.726  26.382   1.647  0.2130  0.0823 -0.0847
    1W        W31257  27.220   2.007   6.111 -0.0243  0.0932  0.0852
    1W        W31258  13.868  26.708   0.538 -0.0564 -0.0435  0.2267
    1W        W31259   0.210  14.788   0.353 -0.0742  0.0283 -0.1941
    1W        W31260   6.515   6.292   7.946 -0.0779 -0.1025 -0.2215
    1W        W31261  21.992  13.618   8.321 -0.3025  0.3089  0.0378
    1W        W31262  12.643  18.168   7.822 -0.2095  0.1002  0.2575
    1W        W31263   4.922   9.581   8.661  0.0836  0.0186 -0.1225
    1W        W31264   3.261   5.152   5.988  0.0163 -0.0422 -0.0250
    1W        W31265  11.472   5.574   2.503 -0.1473 -0.0808  0.0752
    1W        W31266  27.973   0.980   8.942 -0.0558 -0.3116  0.1045
    1W        W31267  24.522  20.352   0.074  0.1398 -0.0543 -0.1147
    1W        W31268   0.790  22.039   0.707 -0.0886 -0.3903 -0.0576
    1W        W31269  15.027  23.638   7.094 -0.0147 -0.0770 -0.0886
    1W        W31270  15.457  14.867   8.268 -0.1025 -0.0365 -0.0542
    1W        W31271  12.562  17.719   0.499 -0.1080  0.0557 -0.1034
    1W        W31272   8.034  11.071   8.759 -0.1453  0.2328  0.2252
    1W        W31273  11.800   1.830   2.530 -0.2445 -0.0851  0.0243
    1W        W31274  20.524   7.211   3.260 -0.0940 -0.0670  0.0244
    1W        W31275  25.072  14.018   8.161 -0.2627 -0.1827 -0.0107
    1W        W31276   8.261  28.353   7.591  0.1011 -0.2211 -0.1177
    1W        W31277   7.363  16.531   7.043  0.2608 -0.1947  0.2965
    1W        W31278  11.742  18.412   8.905  0.2912 -0.0675  0.2243
    1W        W31279  12.719  16.931   9.565  0.0774 -0.0836 -0.1231
    1W        W31280  29.226  19.537   2.638 -0.1085  0.3064 -0.1844
    1W        W31281  23.570  10.285   0.227  0.2664  0.0110 -0.0925
    1W        W31282   8.701  11.010   0.059  0.0185  0.0223 -0.1344
    1W        W31283   0.129  28.240   2.520 -0.0631  0.3373  0.0557
    1W        W31284  15.373   9.683   9.058 -0.2306  0.0673 -0.1295
    1W        W31285   0.059   5.356   0.378 -0.0422  0.1467  0.0453
    1W        W31286  20.659   4.809   1.332  0.2749 -0.0931 -0.3397
    1W        W31287  18.386   5.928   1.292 -0.0263 -0.2672 -0.1833
    1W        W31288  19.218   7.364   0.277 -0.0311 -0.0850 -0.2394
    1W        W31289  25.884   3.313   7.273  0.0140 -0.3135  0.0964
    1W        W31290   6.262  22.328   6.451  0.4417 -0.1268 -0.2281
    1W        W31291  18.610   9.318   0.086 -0.3327 -0.1163  0.0956
    1W        W31292  27.800  20.078   8.583  0.1546 -0.0648 -0.3180
    1W        W31293  10.636   2.389   8.488  0.0149 -0.1035  0.0494
    1W        W31294  10.211  18.422   1.969  0.0452  0.0478 -0.1451
    1W        W31295  23.555  17.959   6.434 -0.0271 -0.1583  0.0617
    1W        W31296  13.096   4.112   1.067 -0.1793  0.2188  0.0771
    1W        W31297  22.829   9.707   9.068  0.1507  0.2051  0.1743
    1W        W31298  11.190   1.174   7.761 -0.0722 -0.0046 -0.1918
    1W        W31299  11.661  28.933   4.043  0.1042 -0.0294  0.3296
    1W        W31300  17.285  26.008   3.774 -0.2879  0.3082 -0.3413
    1W        W31301   4.103  17.102   7.407  0.1862  0.1667  0.0146
    1W        W31302  21.241   8.771   2.396 -0.1457  0.0670 -0.1269
    1W        W31303  27.025  23.083   0.783 -0.1687  0.2057  0.0917
    1W        W31304   4.385   2.600   8.865  0.1327 -0.0671  0.0584
    1W        W31305   7.943  12.049   7.865 -0.1364 -0.0369 -0.1465
    1W        W31306  13.077  12.571   8.283 -0.0430  0.0263  0.0408
    1W        W31307  14.902  12.834   7.687  0.2762 -0.1372 -0.2282
    1W        W31308  23.915  11.267   7.781  0.0269  0.1192 -0.0080
    1W        W31309   8.093   3.837   0.044 -0.2429 -0.0876  0.1660
    1W        W31310   3.071   4.752   5.784 -0.2020 -0.2016  0.2060
    1W        W31311  10.471  14.082   6.943  0.0539  0.2852  0.1103
    1W        W31312  29.119   8.444   2.142 -0.2936 -0.0917  0.0466
    1W        W31313  27.957  29.353   7.998  0.1375 -0.2783  0.1285
    1W        W31314   1.162  24.652   3.282 -0.2587 -0.1049 -0.0213
    1W        W31315   0.814   4.133   5.710 -0.0146  0.0641  0.0163
    1W        W31316   6.236  28.215   0.570  0.0922 -0.1858  0.0198
    1W        W31317  12.110   4.815   0.190 -0.0301 -0.3720  0.1975
    1W        W31318   8.385   5.573   1.842  0.1142 -0.0740  0.0959
    1W        W31319  15.230  26.378   9.559 -0.0029  0.0496 -0.2480
    1W        W31320  20.258  18.016   2.469 -0.0337 -0.3297 -0.0250
    1W        W31321   7.598  18.434   0.751 -0.0186 -0.0935 -0.0622
    1W        W31322  12.797  27.581   1.536 -0.1847  0.0521 -0.3395
    1W        W31323   6.610  20.198   8.555  0.0271 -0.1227  0.1234
    1W        W31324  29.133   6.545   7.370  0.1998 -0.0093 -0.0591
    1W        W31325  17.428   2.866   8.834 -0.0136 -0.1284 -0.0140
    1W        W31326   0.374   2.820   7.432  0.2117  0.0183 -0.0843
    1W        W31327   7.297  16.132   1.715 -0.0679 -0.2142 -0.2331
    1W        W31328   4.800  20.172   8.908  0.3419  0.1447 -0.1487
    1W        W31329  13.941  22.569   7.592 -0.0490 -0.0185 -0.1490
    1W        W31330  17.666   2.788   3.738  0.1573  0.1094  0.0204
    1W        W31331  17.882  24.574   7.358  0.4214  0.0183  0.1103
    1W        W31332  16.319  16.925   7.867  0.0092  0.2035  0.1398
    1W        W31333  22.543   6.870   0.957 -0.0382 -0.0249 -0.2236
    1W        W31334   3.327  25.669   0.879  0.2108  0.0327  0.1733
    1W        W31335  27.203   2.817   2.112  0.0242 -0.1871 -0.4663
    1W        W31336   5.141  26.020   1.257  0.1238 -0.1918 -0.1887
    1W        W31337  29.059  14.479   7.976 -0.0717 -0.2497 -0.2076
    1W        W31338  22.388  19.489   7.069  0.0107 -0.1137  0.3090
    1W        W31339   5.152  23.862   1.938 -0.1847  0.2486 -0.0383
    1W        W31340  21.771  11.506   8.792 -0.1165  0.0064  0.1248
    1W        W31341  28.305  16.250   2.017 -0.0679 -0.0360  0.3649
    1W        W31342   2.299  24.399   6.249 -0.2616  0.3386 -0.1831
    1W        W31343   0.678  20.002   7.452 -0.0348  0.0202 -0.0408
    1W        W31344   6.337  19.444   6.693  0.0358 -0.0026 -0.1910
    1W        W31345   3.834  29.260   0.329  0.1461 -0.1237 -0.1514
    1W        W31346  26.942   0.306   7.400 -0.1688  0.1008 -0.4675
    1W        W31347   5.859  12.608   1.176 -0.1710 -0.1448  0.3028
    1W        W31348  13.429  18.621   9.271 -0.2004 -0.4756 -0.0603
    1W        W31349   3.124  11.576   9.496  0.0862 -0.1210  0.0723
    1W        W31350  25.603  10.127   0.387  0.1694 -0.2300  0.1496
    1W        W31351  15.439  19.026   8.265 -0.1353 -0.3263  0.1186
    1W        W31352  17.688   6.107   0.711 -0.1695 -0.4469 -0.1801
    1W        W31353  21.432  22.111   9.433 -0.0824  0.0271 -0.1271
    1W        W31354  28.323  12.965   0.946 -0.0315  0.0316 -0.3693
    1W        W31355   4.325  18.187   6.071  0.1341 -0.0075  0.0040
    1W        W31356  13.015   5.608   1.192  0.0955  0.0042 -0.3370
    1W        W31357  25.054  28.080   1.043 -0.3148  0.1700  0.2674
    1W        W31358  12.965  24.733   0.111  0.3120  0.1752 -0.2254
    1W        W31359  15.840  23.627   7.490 -0.0281  0.2719 -0.0717
    1W        W31360  13.614   6.650   3.456 -0.0772  0.0411 -0.0093
    1W        W31361   9.282  12.053   0.733  0.0264 -0.0259  0.3386
    1W        W31362  18.990  19.245   9.436 -0.1738  0.0900 -0.1180
    1W        W31363  27.434  27.310   2.624  0.0405  0.0149  0.0031
    1W        W31364  20.679  27.709   7.247 -0.1889 -0.1541 -0.1045
    1W        W31365  16.545  15.071   7.015 -0.2614 -0.2408  0.0914
    1W        W31366  16.258   9.710   1.464  0.1715 -0.1585  0.1445
    1W        W31367  14.318  27.390   2.541  0.0374 -0.2176 -0.0263
    1W        W31368   5.671  17.395   7.437  0.0827  0.2899 -0.1936
    1W        W31369   4.847  19.946   8.333  0.1956 -0.2627 -0.3251
    1W        W31370  24.472  21.005   0.157 -0.2042 -0.0086 -0.1833
    1W        W31371  20.873   0.570   0.526 -0.1711  0.1928 -0.0070
    1W        W31372  27.727  20.486   6.827  0.4005 -0.0401  0.0621
    1W        W31373  11.243  20.410   2.605 -0.0922  0.4076 -0.0138
    1W        W31374   8.322  22.320   6.975  0.5180  0.1991 -0.1107
    1W        W31375  16.419   6.924   3.108  0.1890 -0.1186 -0.1339
    1W        W31376  22.071  24.947   2.887 -0.2091 -0.0409 -0.2439
    1W        W31377  11.737  13.155   2.189  0.3090 -0.2078  0.1503
    1W        W31378  23.102   4.278   0.469  0.0290  0.0014  0.1313
    1W        W31379  13.558   5.086   8.647  0.0899  0.1718 -0.0178
    1W        W31380   4.011   2.517   9.682 -0.3032 -0.1400 -0.0563
    1W        W31381   7.788   4.650   9.114 -0.0190  0.3476  0.1146
    1W        W31382  24.966  10.238   2.922 -0.0702  0.2918  0.0463
    1W        W31383  18.490  22.203   7.625  0.1786  0.0010 -0.4166
    1W        W31384  20.037   6.848   3.070  0.2989  0.2659 -0.0096
    1W        W31385   3.416  20.490   7.375  0.0753  0.0904  0.0451
    1W        W31386   1.068   0.235   3.514  0.0687  0.1163  0.0114
    1W        W31387  25.388  26.068   0.889 -0.0006  0.0581 -0.2292
    1W        W31388  18.446  29.005   0.738  0.2029  0.2214  0.0525
    1W        W31389  10.547  21.544   6.964  0.0879  0.0639 -0.2059
    1W        W31390   2.018   3.709   9.334 -0.0755 -0.2135  0.0185
    1W        W31391   6.971  14.052   7.577  0.1381 -0.0059  0.1905
    1W        W31392   6.550  12.589   9.428 -0.1997 -0.2850 -0.0659
    1W        W31393  23.993  15.485   8.926 -0.2110  0.0716  0.1173
    1W        W31394  17.610  21.675   7.541  0.1396 -0.2662 -0.0062
    1W        W31395  15.295  13.034   9.656  0.3858  0.2959 -0.1560
    1W        W31396  23.411  22.425   1.849  0.0661  0.0177  0.3017
    1W        W31397  23.908  11.945   0.538 -0.1105 -0.0866  0.1859
    1W        W31398  20.364   5.242   2.922 -0.0657 -0.1792  0.2005
    1W        W31399   1.507   4.636   8.856  0.0368  0.0583 -0.0048
    1W        W31400  16.367   0.867   0.476  0.1440 -0.1224  0.0219
    1W        W31401  22.761  24.404   2.455 -0.2375  0.1585  0.0171
    1W        W31402   4.344   2.087   1.392 -0.1809  0.0473 -0.1217
    1W        W31403  18.764   0.452   9.435 -0.2056 -0.2989  0.2366
    1W        W31404   5.753  14.102   0.471 -0.3128 -0.3572  0.3206
    1W        W31405  18.103  24.612   1.920 -0.0226  0.0361 -0.2520
    1W        W31406   4.523  19.798   1.589 -0.0727  0.1600 -0.3386
    1W        W31407  22.008  23.079   9.540  0.0704 -0.1605 -0.2117
    1W        W31408  20.056  15.860   9.248  0.3554 -0.1064  0.0429
    1W        W31409   2.054  27.381   8.313 -0.3489 -0.1883  0.0214
    1W        W31410   5.329  17.453   8.792 -0.2221  0.1503  0.0578
    1W        W31411  22.259   8.780   0.526 -0.2041 -0.2197  0.0478
    1W        W31412   5.284   5.605   0.162  0.1196  0.1496 -0.1239
    1W        W31413  20.407  15.391   9.488 -0.0322 -0.0587 -0.2893
    1W        W31414  14.832  11.797   1.616 -0.0046  0.2080  0.0585
    1W        W31415  15.167  16.837   2.278 -0.1800  0.1243 -0.0819
    1W        W31416  28.814  26.287   7.193  0.3503  0.1518  0.0237
    1W        W31417  28.634   1.681   7.665  0.3042 -0.0835 -0.0067
    1W        W31418   0.227   3.723   6.882 -0.0125  0.1064  0.4652
    1W        W31419   1.850   8.622   1.513 -0.2790  0.0627 -0.1211
    1W        W31420   3.420  10.739   8.884  0.2318 -0.2099  0.0832
    1W        W31421  20.155  10.122   2.576  0.1312 -0.1979  0.2398
    1W        W31422  15.509  20.607   1.049 -0.0573  0.1426 -0.0160
    1W        W31423   3.101   7.657   6.866  0.2295  0.2935 -0.1063
    1W        W31424  11.334   2.153   2.184  0.0743 -0.0590  0.0350
    1W        W31425  11.047   1.253   0.128 -0.3331  0.0134 -0.1982
    1W        W31426  27.105   8.362   0.297  0.2233 -0.2444 -0.0661
    1W        W31427  25.066  23.313   6.500  0.0113  0.0379  0.0175
    1W        W31428   0.563  22.920   1.011  0.4044  0.0368  0.1627
    1W        W31429  20.860   0.056   7.690  0.4322  0.0704  0.0723
    1W        W31430  13.122   4.015   1.581 -0.2350 -0.1267 -0.1067
    1W        W31431   7.287   2.265   9.524 -0.1262 -0.0055  0.0506
    1W        W31432  25.386  17.788   8.132  0.4666  0.2917 -0.2221
    1W        W31433  29.244   1.079   7.614 -0.2755 -0.2176 -0.0603
    1W        W31434  22.690  28.283   2.420  0.2768 -0.3266 -0.0133
    1W        W31435   1.261  24.427   1.110 -0.0674  0.0104  0.4303
    1W        W31436   0.657  26.704   6.748 -0.1330  0.0413 -0.1327
    1W        W31437  13.165  10.709   3.088 -0.2582  0.0408  0.0668
    1W        W31438   9.449  21.504   8.283 -0.0539  0.0038  0.0470
    1W        W31439   1.345  12.642   8.934 -0.1495  0.0753  0.1719
    1W        W31440  23.807   0.364   8.735 -0.0305  0.0354  0.1646
    1W        W31441  25.287  12.055   7.077  0.1488  0.2194 -0.0385
    1W        W31442   5.145  24.959   8.097 -0.1443  0.0031 -0.1070
    1W        W31443  22.182   7.344   1.773 -0.1363 -0.0491  0.0367
    1W        W31444  15.096  19.080   0.665 -0.1939  0.1864  0.2686
    1W        W31445  27.448  29.105   7.074  0.1795 -0.1248 -0.2720
    1W        W31446   8.979  10.005   8.670  0.0019 -0.4780  0.2117
    1W        W31447  15.627  21.251   7.836  0.2730  0.1643  0.0580
    1W        W31448   8.650  10.566   7.985  0.0863  0.2286  0.2323
    1W        W31449  24.841   1.931   7.976 -0.0236 -0.0538  0.2360
    1W        W31450  18.101   7.596   9.475  0.2236  0.2662 -0.0000
    1W        W31451  20.516   8.212   7.339  0.4073 -0.3018 -0.1930
    1W        W31452  18.222  22.968   8.115 -0.1790  0.0305 -0.2286
    1W        W31453   6.635   8.361   7.920  0.2980 -0.2988  0.1415
    1W        W31454   6.890   5.991   8.982 -0.0305 -0.0408 -0.1007
    1W        W31455   0.144  27.299   1.787  0.1371  0.1391  0.0638
    1W        W31456  20.474  24.909   1.546  0.0360  0.5353  0.3309
    1W        W31457  21.567  12.317   0.736  0.3779  0.1088 -0.0660
    1W        W31458  10.474  18.614   2.480  0.0854  0.1141 -0.2557
    1W        W31459  24.657  10.595   2.997  0.0408 -0.1481  0.1165
    1W        W31460  22.056   0.496   2.592  0.0746 -0.2102  0.1337
    1W        W31461  12.256  24.366   2.472 -0.1642  0.1838  0.0715
    1W        W31462  19.335  12.485   8.229  0.0550  0.2061  0.1618
    1W        W31463  20.845  17.583   1.659 -0.0139  0.0725 -0.4921
    1W        W31464  11.728  20.448   9.481 -0.2068 -0.3509  0.3841
    1W        W31465   7.122  12.534   1.058 -0.0562  0.0355 -0.1639
    1W        W31466  28.829  27.123   3.079 -0.1081  0.0511  0.2003
    1W        W31467   7.830  12.494   1.036 -0.1341 -0.0825  0.2043
    1W        W31468  15.091   3.757   0.487 -0.0422 -0.0469  0.0215
    1W        W31469  22.599  23.096   6.796 -0.1609 -0.0250 -0.2645
    1W        W31470  21.604  25.322   2.016 -0.0785  0.0325 -0.0490
    1W        W31471  22.825   1.140   6.808 -0.2755  0.0305  0.0916
    1W        W31472  16.029   0.586   8.507  0.2548  0.2207 -0.2226
    1W        W31473  27.841  14.248   0.784  0.0017  0.0493  0.0894
    1W        W31474  26.633   2.120   0.723  0.0616  0.2440  0.1815
    1W        W31475  27.826  19.406   1.037 -0.0022  0.1435 -0.1109
    1W        W31476  28.708   9.319   0.539  0.0061 -0.1031  0.0011
    1W        W31477   9.761   6.170   1.351 -0.1004  0.0888  0.1332
    1W        W31478  14.068  15.826   8.960  0.1152  0.1100  0.0163
    1W        W31479  13.856  27.753   8.499 -0.1938 -0.0358  0.1194
    1W        W31480  25.048  24.087   7.172  0.0963  0.0525  0.2344
    1W        W31481   4.877   5.018   7.121  0.3842 -0.0360 -0.1234
    1W        W31482  27.328  16.209   1.136  0.2779 -0.2268  0.1244
    1W        W31483  12.923  13.563   6.910  0.4107  0.3043  0.1831
    1W        W31484  11.857  19.118   8.153  0.1252  0.2475 -0.0971
    1W        W31485  28.570  28.127   6.093 -0.0854 -0.2539 -0.0427
    1W        W31486   3.281   3.344   7.959  0.0766  0.0877 -0.0995
    1W        W31487  28.792  18.772   9.397 -0.0339 -0.0303 -0.1907
    1W        W31488   0.431   6.153   1.340  0.2125 -0.1098  0.0300
    1W        W31489  11.786   8.778   2.863 -0.0833 -0.0044  0.1168
    1W        W31490  28.594  10.235   7.392  0.0791  0.1457 -0.2299
    1W        W31491  16.486  27.313   3.961  0.2703 -0.2077  0.0388
    1W        W31492   7.499   7.183   8.282  0.0519  0.1650 -0.0629
    1W        W31493  15.232  22.151   2.704 -0.1664 -0.2256 -0.0628
    1W        W31494   1.423  19.880   8.609  0.0912  0.0701 -0.1106
    1W        W31495  18.333  11.512   7.861  0.0213  0.1921  0.1419
    1W        W31496  12.572   9.726   1.941 -0.1618  0.0730 -0.1217
    1W        W31497  25.165  14.083   8.689 -0.2202 -0.1665  0.2509
    1W        W31498  11.929   0.016   2.201 -0.2579  0.0260 -0.0699
    1W        W31499   9.585  16.520   9.587 -0.0555 -0.1560  0.1804
    1W        W31500  15.662  13.723   1.620  0.0827 -0.0823 -0.0419
    1W        W31501   6.016   8.508   3.231  0.2543 -0.1510 -0.0012
    1W        W31502   7.296  14.825   7.007  0.1795  0.0904  0.1332
    1W        W31503  25.805   5.997   9.643  0.2590 -0.3553  0.0195
    1W        W31504  28.536  16.217   7.653  0.1093  0.1965  0.1277
    1W        W31505  18.012  12.793   0.429  0.1244  0.2355  0.1312
    1W        W31506  26.920  16.559   1.059  0.3916 -0.0435  0.1967
    1W        W31507   7.668  16.154   7.120  0.3118 -0.1801 -0.1227
    1W        W31508   2.682   6.383   2.209 -0.2152  0.2149 -0.0807
    1W        W31509   8.003   0.995   7.431  0.2894 -0.0599  0.0756
    1W        W31510  24.252  21.408   2.145 -0.0851  0.1288 -0.3021
    1W        W31511   9.132   2.916   0.697  0.1115 -0.4515  0.0377
    1W        W31512   8.902  10.767   9.377 -0.0597 -0.3886  0.0371
    1W        W31513  19.740  27.689   0.497  0.1561  0.1346  0.0992
    1W        W31514   8.183   0.862   9.669 -0.0450 -0.1304  0.2463
    1W        W31515  10.625   2.393   8.996  0.3598 -0.2234 -0.3939
    1W        W31516   4.906  19.150   8.153 -0.2271 -0.3477  0.1282
    1W        W31517  12.413   0.993   9.534  0.1734 -0.0441  0.0650
    1W        W31518   6.115  21.340   6.768  0.0383 -0.0044  0.0206
    1W        W31519  20.344  11.478   6.688  0.1554 -0.1342 -0.0835
    1W        W31520   4.963   1.501   0.253 -0.1373  0.3673  0.0821
    1W        W31521  27.560   4.374   0.384 -0.1512 -0.1594  0.0359
    1W        W31522  16.700  22.743   6.599  0.1316  0.0388  0.0300
    1W        W31523   7.558   1.512   2.705 -0.1421  0.0148  0.1245
    1W        W31524  23.755  13.269   9.371  0.1834  0.2539 -0.0776
    1W        W31525  18.817  24.391   6.169 -0.2327  0.1104  0.0679
    1W        W31526  12.298   9.047   8.577  0.1998 -0.0545  0.1802
    1W        W31527   8.066   5.466   1.458 -0.0001 -0.3066  0.2212
    1W        W31528  11.727  19.135   2.029  0.0698  0.2256  0.4291
    1W        W31529  12.697  23.413   0.718 -0.1521  0.0846  0.1742
    1W        W31530  24.924  15.636   8.820 -0.5081  0.0213 -0.2338
    1W        W31531  23.807  18.787   0.541  0.1549  0.0763 -0.3039
    1W        W31532   9.257  18.052   8.285 -0.4068 -0.3285  0.1073
    1W        W31533  24.726  22.167   9.058  0.0052 -0.1935 -0.3074
    1W        W31534  27.753   2.793   6.736 -0.1333 -0.1853  0.1469
    1W        W31535  18.315  22.279   0.551  0.0366 -0.0514 -0.2370
    1W        W31536  21.468   0.915   8.160 -0.2057  0.1020  0.4250
    1W        W31537  15.111  28.056   1.824 -0.2588  0.1343 -0.1374
    1W        W31538  16.254  10.009   0.008  0.0337 -0.0505 -0.0538
    1W        W31539   8.178  21.234   8.365  0.0836 -0.3035 -0.2600
    1W        W31540  20.309  28.166   1.585  0.1358  0.2031 -0.0716
    1W        W31541  25.841  28.309   2.687  0.1446  0.0589 -0.0336
    1W        W31542  19.866  17.327   0.153  0.0410 -0.2267 -0.1911
    1W        W31543  13.233   7.733   0.127  0.2971 -0.0645  0.1038
    1W        W31544  21.619  15.897   9.614 -0.4026  0.3665  0.4683
    1W        W31545  22.570  20.448   7.788 -0.2203 -0.1422 -0.0777
    1W        W31546   4.095   9.257   6.103 -0.1475  0.2005  0.2690
    1W        W31547   4.904   2.579   6.815  0.1745  0.2005 -0.0270
    1W        W31548   6.997   6.279   0.101 -0.0445  0.1483 -0.0183
    1W        W31549   3.568   8.828   8.026 -0.1381 -0.1308 -0.0782
    1W        W31550   9.095  21.750   7.448  0.0107  0.0737  0.0315
    1W        W31551   6.406  10.719   2.307  0.3143 -0.3443  0.0733
    1W        W31552   8.293   7.537   0.420  0.2030 -0.1526 -0.1501
    1W        W31553  12.129  27.409   9.266 -0.1285 -0.1236  0.1734
    1W        W31554  11.358  19.642   7.822  0.0508 -0.2219  0.1112
    1W        W31555  17.867  20.504   0.560 -0.3845 -0.2803  0.1023
    1W        W31556  20.116   4.181   2.704 -0.1539  0.2188 -0.0308
    1W        W31557  28.453  11.132   2.433  0.2090 -0.0916 -0.1079
    1W        W31558   6.854   4.285   0.339 -0.0481 -0.0245  0.3589
    1W        W31559  16.566  23.344   7.204 -0.0271  0.2756  0.1379
    1W        W31560  11.694   1.653   9.523  0.1152  0.1438 -0.0749
    1W        W31561  13.707   1.402   3.107 -0.0404 -0.1825 -0.1654
    1W        W31562   5.086   5.097   0.156 -0.0128  0.1057  0.1933
    1W        W31563  26.435  13.711   5.782  0.0488  0.3627  0.2537
    1W        W31564  26.193  24.031   2.149 -0.0523  0.1014  0.0139
    1W        W31565  28.382   1.777   0.464 -0.2127 -0.0265  0.0283
    1W        W31566   3.664   7.477   1.703 -0.6936 -0.1915 -0.2127
    1W        W31567  19.974  18.301   9.444  0.0209  0.0352  0.0975
    1W        W31568   0.817   7.923   7.313 -0.3592  0.1364  0.0808
    1W        W31569   7.792   6.463   2.324  0.3256 -0.0571  0.1375
    1W        W31570  14.974  21.334   7.016  0.1511 -0.1517 -0.3632
    1W        W31571  13.400  25.417   8.852  0.2920  0.4016 -0.3937
    1W        W31572  16.808   3.897   9.601 -0.3550  0.2572  0.1630
    1W        W31573  12.793  17.042   2.003  0.1587 -0.0302 -0.0043
    1W        W31574  21.501  15.690   0.518  0.0557 -0.1646  0.3017
    1W        W31575  27.090   5.777   2.328 -0.1160 -0.0192  0.1872
    1W        W31576  16.225  19.608   8.079 -0.0246 -0.3235 -0.0996
    1W        W31577  22.345  18.742   7.872  0.0124  0.2577 -0.0609
    1W        W31578   5.085   3.743   1.209  0.0107 -0.1179  0.0592
    1W        W31579  21.867  16.997   9.199  0.0166  0.0197 -0.1599
    1W        W31580   6.421  28.744   6.679  0.0127  0.0083 -0.0385
    1W        W31581  26.955   6.981   9.335  0.1325 -0.1142 -0.2434
    1W        W31582   7.022  29.112   2.389 -0.0231  0.3513 -0.3292
    1W        W31583  27.111   4.323   7.685  0.0355  0.1644  0.0011
    1W        W31584   5.700  13.195   6.317  0.0782  0.0283 -0.1174
    1W        W31585  23.099  11.663   5.833 -0.1100 -0.2834 -0.1802
    1W        W31586  20.629   9.227   6.712 -0.1370 -0.0033 -0.1730
    1W        W31587   1.643   2.420   9.586  0.4700 -0.0983 -0.0350
    1W        W31588  26.459  20.749   0.442  0.0068  0.0362 -0.2120
    1W        W31589   7.260   6.720   8.388  0.0141 -0.0476  0.2493
    1W        W31590   5.619  14.016   1.027  0.2689 -0.1964 -0.1559
    1W        W31591   5.075  20.998   6.806  0.3188 -0.2364 -0.1209
    1W        W31592  26.164  21.469   8.461 -0.0807 -0.2314 -0.0161
    1W        W31593   5.539  22.520   8.440 -0.1355  0.0048 -0.0998
    1W        W31594  25.201  20.508   6.422  0.0327  0.0336  0.0719
    1W        W31595  19.518  27.303   2.398 -0.2422  0.1096  0.1503
    1W        W31596  15.112  25.704   9.113 -0.2394  0.0287 -0.1406
    1W        W31597  24.137  17.262   0.855 -0.0191  0.2854  0.2927
    1W        W31598  25.483  14.066   7.352  0.1433 -0.5512  0.0377
    1W        W31599   9.934  10.999   0.758 -0.1044  0.1465  0.1361
    1W        W31600   3.483  18.350   8.314  0.3890  0.1110 -0.2368
    1W        W31601  28.819   8.167   9.377  0.0641 -0.0565 -0.1211
    1W        W31602   6.833  15.900   7.701  0.1958  0.4473 -0.0319
    1W        W31603   8.917   1.767   7.868  0.0159  0.3568 -0.6288
    1W        W31604  24.917  25.813   7.154 -0.0064  0.2372 -0.1342
    1W        W31605  27.237  19.004   7.629 -0.0388  0.1413  0.0973
    1W        W31606  28.573  10.794   2.812  0.0032  0.0168  0.1906
    1W        W31607  21.529   4.272   1.038 -0.2191  0.1226  0.0723
    1W        W31608   7.590  11.605   1.253  0.0060 -0.1049 -0.1556
    1W        W31609  10.018  22.447   6.731 -0.1538 -0.0300 -0.2361
    1W        W31610  10.196   7.572   1.104  0.1302  0.1738 -0.1747
    1W        W31611  26.371  15.249   1.618  0.1801  0.0035  0.3258
    1W        W31612  19.891  24.321   8.193 -0.0970  0.3076 -0.1536
    1W        W31613  18.270   9.869   8.578 -0.3075  0.0739 -0.0874
    1W        W31614   4.546  26.719   8.149 -0.2719  0.0489 -0.0954
    1W        W31615  18.004  26.001   9.555  0.0124 -0.0365 -0.0625
    1W        W31616   1.120  14.318   7.846 -0.0053  0.1735  0.1003
    1W        W31617  17.814   1.332   8.524  0.0299  0.0127  0.3587
    1W        W31618  23.828  18.205   8.890 -0.0569  0.0133 -0.3149
    1W        W31619  11.485  28.723   0.285 -0.2755  0.2875 -0.1536
    1W        W31620  25.570  16.373   8.034 -0.2219 -0.1423  0.1152
    1W        W31621  20.640  18.665   6.889 -0.1115  0.2073 -0.3734
    1W        W31622  26.195  20.593   1.789  0.3611  0.1491  0.3727
    1W        W31623   4.189  10.964   0.569  0.0628 -0.4630 -0.2358
    1W        W31624   0.712  17.466   0.878  0.0629 -0.0827  0.1010
    1W        W31625  13.809  14.172   7.949  0.2191  0.0300 -0.0444
    1W        W31626   8.438  12.905   1.659  0.1686 -0.2499  0.2299
    1W        W31627  28.048  15.765   0.699  0.0173  0.0726  0.0757
    1W        W31628  29.015  19.139   6.549  0.3458  0.2501 -0.0914
    1W        W31629   1.688  25.664   9.233 -0.0060 -0.1800 -0.3766
    1W        W31630   7.756   5.568   0.626  0.0116 -0.0249  0.1308
    1W        W31631   5.141  28.789   3.087  0.2193 -0.2022 -0.0717
    1W        W31632  11.565   2.400   8.911 -0.0236 -0.1507  0.1091
    1W        W31633  19.896  20.098   1.969  0.0989  0.2388 -0.2183
    1W        W31634  13.518  23.185   2.143  0.1460 -0.2448 -0.3644
    1W        W31635  13.021  19.778   9.623  0.1286  0.4683  0.1743
    1W        W31636  22.641  17.333   8.417  0.0615  0.1364 -0.1660
    1W        W31637   4.618   9.673   7.263 -0.0542 -0.0624 -0.1173
    1W        W31638  17.350  23.291   7.692  0.2855 -0.2786  0.1798
    1W        W31639  27.568   8.566   1.352  0.1421 -0.0448  0.0152
    1W        W31640  26.299  11.617   1.969  0.3470  0.2984 -0.0445
    1W        W31641  28.612   7.902   0.523 -0.0998 -0.0514 -0.1088
    1W        W31642   6.140   3.945   2.125 -0.1136  0.0362 -0.0393
    1W        W31643  12.906   2.752   9.337 -0.1651  0.0048 -0.4633
    1W        W31644  26.403  10.449   6.591  0.0124  0.2664  0.0857
    1W        W31645  29.304  22.369   8.740 -0.0679 -0.2460 -0.3348
    1W        W31646   8.293   8.311   2.419 -0.3313  0.0608  0.0274
    1W        W31647   4.698  26.029   8.309  0.1206  0.0919  0.0926
    1W        W31648  12.281  21.883   2.090  0.1285  0.1915 -0.0835
    1W        W31649  15.905  21.479   2.232 -0.1709 -0.1387  0.1186
    1W        W31650  18.627   5.168   9.469 -0.0037  0.3603  0.0568
    1W        W31651  27.571   4.558   7.716  0.3502  0.0428  0.0538
    1W        W31652   6.730  13.926   2.981  0.1259 -0.0404 -0.0328
    1W        W31653  12.914  17.157   7.293 -0.2156  0.2417 -0.2639
    1W        W31654  27.450  25.547   0.188  0.1234  0.2340 -0.1204
    1W        W31655  13.754  24.804   0.427  0.0141  0.2151  0.3403
    1W        W31656  25.767  11.576   9.121 -0.3700  0.0517  0.0611
    1W        W31657  25.662  24.856   1.659  0.2963 -0.1298 -0.1663
    1W        W31658   2.972  18.346   6.558 -0.2022 -0.3625 -0.1060
    1W        W31659  28.766   3.783   7.029 -0.0691 -0.0241 -0.0970
    1W        W31660   1.264  13.411   6.926  0.1193 -0.0905 -0.2011
    1W        W31661   2.106   1.321   8.644  0.0525 -0.1613 -0.2074
    1W        W31662  24.931   0.145   7.308  0.1874  0.2306 -0.1261
    1W        W31663  25.911  14.823   8.959  0.0884 -0.2459  0.2479
    1W        W31664  21.287  18.872   0.677  0.1418 -0.1897  0.2015
    1W        W31665  27.567  13.977   9.675 -0.1733 -0.1644 -0.2257
    1W        W31666  29.145  20.384   0.273 -0.2567 -0.2110  0.0722
    1W        W31667  20.693  14.456   7.301 -0.0258  0.0414  0.0917
    1W        W31668  28.626  18.991   8.049 -0.0390 -0.1256  0.0117
    1W        W31669  21.199  12.419   7.785  0.1735  0.0031  0.2976
    1W        W31670  20.764  25.267   2.548 -0.0345 -0.0308 -0.1447
    1W        W31671  11.336  10.057   1.392  0.0619  0.0379  0.3063
    1W        W31672   1.301   8.785   6.615 -0.0594  0.0171 -0.4393
    1W        W31673   6.787  22.250   1.480 -0.1575  0.2276 -0.0335
    1W        W31674  25.135  12.658   1.386 -0.0213 -0.0797  0.0859
    1W        W31675   6.318  25.548   7.319  0.1086  0.0886  0.1745
    1W        W31676  24.520  12.668   7.027  0.0520  0.2762 -0.1240
    1W        W31677  28.792   8.467   1.790  0.3057  0.0779 -0.2295
    1W        W31678  15.119   9.663   9.547 -0.0387 -0.1563 -0.2657
    1W        W31679  12.591  20.494   1.367  0.2380 -0.1281 -0.1442
    1W        W31680  26.738  23.287   1.186  0.2629  0.0564  0.4387
    1W        W31681  22.052   9.463   2.222  0.2493 -0.2600  0.0140
    1W        W31682   2.048   3.946   7.743  0.0258  0.1594  0.2693
    1W        W31683  13.581  17.959   1.435  0.4419  0.1434 -0.2005
    1W        W31684  27.783  22.780   8.615 -0.0397  0.0759  0.2249
    1W        W31685   2.857  27.249   1.988  0.3216 -0.0889  0.1988
    1W        W31686   0.549   9.370   6.480 -0.0329  0.0841 -0.0167
    1W        W31687  20.025   1.533   0.645 -0.0961 -0.2001 -0.1255
    1W        W31688   2.183  27.481   9.542  0.1354  0.0001  0.0809
    1W        W31689   1.432  15.827   7.049 -0.2515 -0.1073  0.1092
    1W        W31690  24.311  22.748   3.402 -0.1804 -0.0758  0.1241
    1W        W31691  15.944  27.590   3.046 -0.0559 -0.0591 -0.2663
    1W        W31692  24.269  23.212   0.246  0.1872  0.1113 -0.1374
    1W        W31693  27.858   9.692   8.883  0.3970  0.2125  0.4676
    1W        W31694   0.486  14.502   2.046 -0.1874 -0.2901 -0.0466
    1W        W31695   0.493   1.517   8.811  0.0666  0.1036 -0.2280
    1W        W31696  19.500   2.429   0.703  0.1801 -0.1643  0.1533
    1W        W31697   3.553  11.487   6.963  0.2379  0.0320  0.1819
    1W        W31698  13.370  21.178   7.273  0.2333  0.3004 -0.0812
    1W        W31699  26.795  12.124   8.097  0.0036  0.0379 -0.1665
    1W        W31700  24.290  22.511   9.072  0.1204  0.1655 -0.1278
    1W        W31701  14.877   4.279   7.058  0.2452 -0.0818  0.1504
    1W        W31702  20.349   1.480   6.876 -0.0356  0.1086  0.3879
    1W        W31703   1.961   1.018   8.190  0.2989 -0.2270 -0.0609
    1W        W31704  22.765  14.613   8.589  0.1421 -0.2002  0.1116
    1W        W31705  25.625  23.345   2.431 -0.0523  0.2686  0.0480
    1W        W31706   1.931   8.809   7.453 -0.2057  0.0666 -0.0644
    1W        W31707   9.335   6.608   7.955  0.1962  0.2577  0.0508
    1W        W31708  18.021  22.460   0.206  0.4444  0.0430  0.2489
    1W        W31709   4.849  17.896   6.720  0.1060  0.0898 -0.0008
    1W        W31710   3.843  21.692   2.528  0.1160  0.0236 -0.0026
    1W        W31711  10.755   7.166   1.903 -0.1038  0.0927 -0.2379
    1W        W31712  11.696  19.970   8.585  0.0495 -0.2893 -0.1549
    1W        W31713  15.854  28.458   2.042 -0.0292  0.1101 -0.1555
    1W        W31714  27.188  27.737   7.031  0.2125  0.0212 -0.0065
    1W        W31715   4.314  12.037   0.399 -0.2292 -0.3869  0.1416
    1W        W31716  11.951   2.091   9.342  0.1050  0.0381  0.0712
    1W        W31717  28.230  18.895   1.748  0.1991 -0.2768  0.4379
    1W        W31718   3.431  12.899   3.112  0.2629 -0.1214 -0.0176
    1W        W31719  15.477  16.659   9.577 -0.0166 -0.0659  0.0380
    1W        W31720  22.879   4.957   5.680  0.0103  0.1073  0.0823
    1W        W31721   4.248   5.054   2.501 -0.0227 -0.4064  0.1855
    1W        W31722  12.882  21.923   6.927 -0.2899  0.3564 -0.0893
    1W        W31723  24.827  15.703   1.020 -0.0695  0.1631 -0.0213
    1W        W31724  18.047  14.697   7.942  0.2318  0.0706  0.0879
    1W        W31725   9.386  28.946   9.571  0.3145 -0.0957 -0.0551
    1W        W31726  28.606   3.183   8.433  0.0123  0.0726 -0.0907
    1W        W31727  24.725  28.499   6.872  0.0911 -0.0101  0.0394
    1W        W31728  18.544   9.980   1.995  0.0111  0.1408 -0.3305
    1W        W31729   0.549  20.799   7.229  0.0113  0.1422  0.1223
    1W        W31730  23.673   3.696   1.902  0.3192  0.1624 -0.0158
    1W        W31731   3.519  27.238   7.880  0.0354  0.2977 -0.0312
    1W        W31732   7.328  26.552   7.549 -0.0907  0.0589  0.1443
    1W        W31733   6.484  26.415   8.462 -0.0367  0.0204 -0.4516
    1W        W31734  19.321  24.127   2.237 -0.1142  0.2247  0.0971
    1W        W31735  11.157  22.749   2.925 -0.0111 -0.1335  0.1740
    1W        W31736  24.138  13.084   7.081  0.0135  0.1321 -0.0688
    1W        W31737  13.667   1.915   3.179  0.0624 -0.0251 -0.1647
    1W        W31738  17.774  22.600   6.635 -0.1107  0.1997  0.0641
    1W        W31739   3.518   4.380   2.132  0.4781  0.1449 -0.0391
    1W        W31740  15.905  11.775   8.617  0.1032  0.0950  0.2089
    1W        W31741  22.379   1.869   2.119  0.0008 -0.2994 -0.0723
    1W        W31742  27.437  17.296   1.771  0.1625 -0.0872 -0.0379
    1W        W31743  10.231  18.201   8.543  0.2469 -0.0781 -0.0900
    1W        W31744   3.701  13.108   1.308 -0.1591 -0.1521 -0.1766
    1W        W31745   8.344  12.492   1.305  0.0918  0.0036 -0.0268
    1W        W31746   1.929  18.459   8.638  0.0554  0.1107 -0.0336
    1W        W31747   8.280   4.305   9.060  0.1274  0.0749  0.0913
    1W        W31748   6.642  14.794   6.922  0.2283 -0.1558 -0.0554
    1W        W31749  16.776  21.623   0.267 -0.0816 -0.0471  0.0749
    1W        W31750  21.193   2.001   2.748  0.2196 -0.0271 -0.3952
    1W        W31751   1.261   2.300   7.783  0.0090  0.2430 -0.0289
    1W        W31752  15.240   5.700   1.691  0.0106  0.1570  0.1493
    1W        W31753   5.681  26.199   8.727  0.0069  0.0943 -0.2460
    1W        W31754  24.491   2.804   1.317  0.2894  0.2344  0.0004
    1W        W31755  17.746   2.403   2.896 -0.0395 -0.2689  0.3659
    1W        W31756   0.809   7.897   6.367  0.2562 -0.2127 -0.1410
    1W        W31757   3.709   0.840   1.811  0.0981 -0.1392 -0.1776
    1W        W31758  12.876   1.044   8.423  0.1330  0.0485 -0.3198
    1W        W31759  18.654  21.198   0.564  0.1743  0.0296 -0.1276
    1W        W31760   9.370  26.076   2.146 -0.0226 -0.1015  0.0843
    1W        W31761  27.223   5.745   0.191 -0.1884 -0.1632  0.3115
    1W        W31762  22.967  20.360   7.202 -0.2339 -0.1397  0.0820
    1W        W31763  23.663  27.175   7.983  0.0807  0.3920  0.0264
    1W        W31764  11.485  19.359   1.148  0.1834  0.1765 -0.1185
    1W        W31765  11.191  22.133   0.327 -0.0133 -0.0985 -0.0171
    1W        W31766  10.649  14.228   9.193  0.0980 -0.2843  0.1365
    1W        W31767  15.418  14.158   2.550  0.0402 -0.1944  0.0145
    1W        W31768  13.716  21.669   2.386  0.0602  0.1658  0.4346
    1W        W31769  22.678  22.380   7.810  0.1391 -0.0063 -0.0793
    1W        W31770  26.528   4.653   1.932 -0.1820  0.3076  0.0218
    1W        W31771   1.183  27.742   2.433  0.4014  0.1670 -0.0017
    1W        W31772   2.423  18.104   1.865  0.0191  0.0607 -0.2442
    1W        W31773   4.162  11.818   3.390  0.2912 -0.2181 -0.4143
    1W        W31774  10.255  12.591   1.382 -0.0179 -0.0080 -0.0279
    1W        W31775  21.057   8.855   9.509 -0.2799 -0.2239  0.1398
    1W        W31776  18.209   7.640   8.244 -0.1031 -0.0890 -0.0102
    1W        W31777  26.426  16.364   6.319  0.0089 -0.0851 -0.1158
    1W        W31778  20.082   8.832   8.509  0.1250  0.1526  0.2893
    1W        W31779  20.591   0.192   8.091  0.0872  0.0652  0.2381
    1W        W31780  27.964  20.449   0.673 -0.0004  0.0543 -0.2853
    1W        W31781   3.417   4.163   0.396 -0.0386 -0.0891 -0.1125
    1W        W31782   6.591   3.279   8.570 -0.2467 -0.1555  0.0678
    1W        W31783   4.902  24.979   1.337  0.0421 -0.0392  0.0109
    1W        W31784   4.418  28.015   0.796  0.0620 -0.2172 -0.0683
    1W        W31785  23.695   6.865   7.187  0.3542  0.2986  0.0478
    1W        W31786   7.847  24.817   0.026  0.4115  0.2433 -0.0946
    1W        W31787  20.360  25.707   0.012 -0.2424  0.1588  0.1667
    1W        W31788  27.375  18.124   3.188 -0.4734 -0.3405  0.0458
    1W        W31789  26.342  23.926   9.159  0.3305  0.0564 -0.0519
    1W        W31790  20.798  11.423   6.257 -0.2003 -0.0798 -0.1253
    1W        W31791   1.717  29.060   1.065  0.0257  0.0898  0.2689
    1W        W31792   3.018  19.486   0.194  0.1658  0.0799  0.0097
    1W        W31793  26.238  16.549   9.393 -0.1265  0.1567  0.1410
    1W        W31794  14.715   9.366   0.282  0.1595 -0.4036  0.0243
    1W        W31795   3.539  22.131   7.082  0.1446  0.3614 -0.1925
    1W        W31796   3.321   9.143   8.352 -0.0915  0.0137 -0.5236
    1W        W31797   6.608   1.714   9.511  0.0025 -0.0976  0.1700
    1W        W31798  29.361   5.887   7.719 -0.0491 -0.4532  0.3116
    1W        W31799   6.349  27.613   2.286 -0.0764 -0.0624 -0.2091
    1W        W31800   0.528  12.520   3.006  0.1395  0.0668  0.1864
    1W        W31801  22.897  29.337   8.782 -0.0455 -0.0384 -0.2034
    1W        W31802  19.592  20.231   9.037 -0.1970 -0.2389  0.1508
    1W        W31803  28.614  21.355   7.161 -0.2610 -0.2006  0.2790
    1W        W31804  18.861  12.947   1.892  0.0232 -0.0015  0.0330
    1W        W31805  11.809  23.562   9.536 -0.0796  0.0476 -0.1780
    1W        W31806   7.771  23.440   8.855  0.4905  0.2316  0.2049
    1W        W31807  25.036  28.858   6.707  0.1228 -0.0327 -0.2660
    1W        W31808   7.888  28.427   8.536 -0.1170  0.0350 -0.1615
    1W        W31809   1.203  20.561   7.889  0.0278 -0.0360 -0.1547
    1W        W31810  13.700  24.111   7.542  0.2792 -0.0742  0.0772
    1W        W31811  25.412  14.504   1.102  0.0547 -0.2339 -0.2841
    1W        W31812  28.166  11.205   7.145 -0.2070 -0.1678  0.1492
    1W        W31813  23.640   8.343   1.527 -0.2896 -0.5679  0.1866
    1W        W31814   4.043  26.789   0.440  0.1794 -0.2629  0.0303
    1W        W31815  17.562   6.932   8.887  0.0855 -0.5238 -0.0620
    1W        W31816   0.304   1.761   0.962 -0.0106 -0.3927 -0.1216
    1W        W31817   8.286  19.978   1.613 -0.1350 -0.2068  0.2600
    1W        W31818  24.704  18.887   0.358 -0.0171 -0.1694  0.0042
    1W        W31819  26.940   4.893   9.608  0.0877 -0.2904  0.1908
    1W        W31820  19.510  26.869   8.037  0.0143  0.1829 -0.2862
    1W        W31821   4.697   0.615   2.278  0.2490 -0.0835  0.0240
    1W        W31822   0.246  24.910   7.381  0.0601 -0.0607 -0.3406
    1W        W31823   2.440  26.429   1.880 -0.2943  0.2537 -0.1219
    1W        W31824   7.714  13.900   8.275  0.1883 -0.0737  0.1305
    1W        W31825  10.318  11.694   1.761 -0.2033  0.1639  0.3210
    1W        W31826   4.715  21.395   0.817 -0.1730 -0.0502  0.0643
    1W        W31827   0.876  15.080   1.238 -0.0459  0.1266  0.1148
    1W        W31828  23.559   3.534   6.154 -0.0206 -0.0743  0.0447
    1W        W31829  16.162   1.619   1.775  0.0894  0.0661  0.0535
    1W        W31830  13.225   4.108   0.611 -0.0404  0.1771  0.0076
    1W        W31831  15.894  28.069   0.961 -0.1234  0.0605 -0.1054
    1W        W31832  26.172   4.186   8.347 -0.4343 -0.2618  0.4451
    1W        W31833   2.211  27.808   1.982  0.1030 -0.0303  0.0755
    1W        W31834   0.064   5.829   1.501  0.1424  0.0634  0.1822
    1W        W31835  21.598  10.505   1.096  0.1480 -0.1283 -0.0392
    1W        W31836  14.970  15.049   0.060 -0.1758 -0.0895  0.0992
    1W        W31837   4.134   9.466   2.448  0.3201  0.0706  0.2988
    1W        W31838   3.824   0.459   7.451  0.0704 -0.1315  0.2592
    1W        W31839  23.358  14.805   2.441 -0.1749 -0.0903  0.0081
    1W        W31840   0.957   7.609   0.860 -0.2155  0.0608  0.2536
    1W        W31841   7.977  13.528   9.681 -0.0937  0.3512 -0.1554
    1W        W31842   6.548   0.526   3.693  0.3358  0.0099 -0.0811
    1W        W31843  10.097  25.027   1.687  0.4346  0.0837  0.1255
    1W        W31844  22.663   6.075   0.465  0.1509  0.2188  0.0487
    1W        W31845  10.628  28.959   0.917 -0.1794  0.3726  0.1875
    1W        W31846  25.810   6.586   0.406 -0.1839 -0.2708 -0.3610
    1W        W31847  25.077   3.903   7.062  0.0082 -0.0285 -0.1142
    1W        W31848  12.819  21.603   9.187  0.0286  0.0911 -0.2831
    1W        W31849   5.313  18.566   1.099  0.1098  0.0407 -0.1921
    1W        W31850   0.278   8.178   7.610 -0.1832  0.2223 -0.0549
    1W        W31851   6.729  27.458   8.169  0.0375  0.0225 -0.2476
    1W        W31852  26.155   2.021   6.645 -0.1204 -0.1019 -0.0219
    1W        W31853  20.000   5.546   3.120  0.2353  0.2036 -0.0577
    1W        W31854  20.340  23.234   2.558 -0.4133  0.3560  0.0188
    1W        W31855  25.792   4.437   2.229 -0.0179 -0.2462 -0.1800
    1W        W31856  22.314  15.510   8.692  0.2444  0.0612  0.1072
    1W        W31857  16.642   6.321   7.447  0.1465 -0.3027 -0.1449
    1W        W31858   6.634   8.316   1.454  0.1890 -0.2566  0.1007
    1W        W31859  28.728  16.205   0.618  0.0504  0.0064 -0.0023
    1W        W31860  16.337   6.793   7.567  0.3258  0.3077  0.1341
    1W        W31861   1.121  16.713   8.542  0.0003 -0.1727  0.2241
    1W        W31862  28.280  27.803   6.343  0.0758  0.2075 -0.2131
    1W        W31863   8.027   2.863   0.257 -0.1140 -0.2518 -0.1899
    1W        W31864  22.623   4.829   8.957  0.0023  0.2146 -0.0191
    1W        W31865   3.829   0.815   1.124  0.0839  0.2287 -0.2402
    1W        W31866   0.032  20.424   9.510  0.0608  0.0278  0.4444
    1W        W31867  14.611   3.133   7.219 -0.2879  0.0566 -0.1231
    1W        W31868  18.009  15.891   7.789 -0.0132  0.0087  0.1101
    1W        W31869  10.565   1.815   3.637 -0.0233  0.1499  0.0206
    1W        W31870  24.779  12.722   0.995  0.0109 -0.0444  0.1570
    1W        W31871   2.687  24.912   8.953 -0.2289  0.2378  0.1261
    1W        W31872  25.177  13.752   7.762  0.2700 -0.0590  0.2673
    1W        W31873  21.430  16.652   0.302  0.0786  0.1945 -0.2486
    1W        W31874  25.762  13.029   0.763 -0.1520 -0.0528 -0.0792
    1W        W31875   9.611  21.103   6.260 -0.0979  0.0229 -0.0210
    1W        W31876  14.215   1.961   3.755 -0.1429  0.3710 -0.0836
    1W        W31877  13.090  24.710   0.701  0.2384 -0.1509 -0.0655
    1W        W31878  19.359   4.905   1.448 -0.1439  0.1389 -0.1578
    1W        W31879  13.493  12.701   0.767  0.1133 -0.0566  0.0740
    1W        W31880  11.413  12.896   8.362 -0.1637  0.2523  0.0690
    1W        W31881   6.586  15.105   8.021 -0.2538 -0.0305 -0.0217
    1W        W31882   9.116  21.029   7.025  0.0921  0.3929 -0.3306
    1W        W31883  10.003  21.723   1.918 -0.2201 -0.1447  0.0702
    1W        W31884  27.262   5.838   7.538  0.4592  0.0987  0.0569
    1W        W31885   5.138  20.390   8.133  0.1765  0.0021 -0.0896
    1W        W31886  10.938  22.882   2.351  0.3446  0.1762 -0.2469
    1W        W31887  23.282  27.312   6.912  0.1619  0.2199  0.0375
    1W        W31888   7.605  17.738   9.559  0.1087 -0.2347 -0.2195
    1W        W31889  21.145  24.550   7.728  0.3169 -0.0585 -0.0318
    1W        W31890  23.729  26.587   7.469  0.0621  0.1453 -0.0055
    1W        W31891   3.456  15.278   1.070 -0.0259  0.1980  0.1219
    1W        W31892  14.414  29.348   0.696 -0.0359  0.1394  0.2216
    1W        W31893  24.710  21.796   2.231 -0.3593 -0.0744  0.1925
    1W        W31894  25.528  19.641   7.320 -0.3166 -0.1096 -0.0187
    1W        W31895  13.931  15.581   9.411 -0.0460  0.0626 -0.1845
    1W        W31896  24.328  16.055   0.351  0.2034  0.2977 -0.1638
    1W        W31897   8.231   2.336   1.723 -0.1109 -0.1302 -0.2116
    1W        W31898   3.637   9.567   7.134 -0.1429  0.1254  0.1200
    1W        W31899  14.264  12.590   9.040  0.1030  0.0298 -0.5424
    1W        W31900  10.102  15.909   6.743 -0.0139 -0.0500 -0.2501
    1W        W31901   8.891  21.503   9.446  0.0878  0.4415  0.0541
    1W        W31902   2.452  26.631   3.218  0.1318 -0.0519  0.3630
    1W        W31903  20.608   2.059   0.063  0.1933  0.1643  0.4098
    1W        W31904   6.973   5.065   2.706  0.1122 -0.2634 -0.0830
    1W        W31905  20.068  28.440   9.369 -0.4039  0.3715  0.2234
    1W        W31906  16.105  11.370   8.794  0.0962 -0.3132  0.1544
    1W        W31907   6.213   9.378   0.717  0.2302 -0.2250  0.1547
    1W        W31908   0.061  28.458   0.844 -0.0391 -0.2402 -0.3486
    1W        W31909  28.183  12.373   8.509 -0.1688  0.1265 -0.1103
    1W        W31910  10.508  13.479   2.315  0.2074 -0.0469 -0.3015
    1W        W31911  20.178   2.114   8.013  0.2168  0.0762 -0.3026
    1W        W31912  11.431  10.013   2.740  0.1072 -0.0635 -0.1245
    1W        W31913   5.461   1.971   9.359  0.1865  0.1831 -0.3258
    1W        W31914  21.729   2.714   9.457  0.1634 -0.0774 -0.0934
    1W        W31915  26.491  22.672   2.401  0.0823  0.2855 -0.1378
    1W        W31916  20.377  17.836   0.024  0.0928 -0.0799  0.2319
    1W        W31917  20.416   8.663   8.938 -0.0893 -0.0586  0.1234
    1W        W31918  12.235  22.964   0.471 -0.0192  0.2369 -0.2352
    1W        W31919  27.559  29.271   1.612 -0.2959  0.0687 -0.4089
    1W        W31920   6.583  20.436   7.649 -0.0622 -0.1517  0.1423
    1W        W31921   7.440  22.057   2.042  0.1103  0.2312  0.0047
    1W        W31922  25.596   4.494   0.035  0.0391  0.0905  0.0185
    1W        W31923  17.651  10.331   7.015 -0.1041 -0.1231  0.1742
    1W        W31924  23.235   9.682   6.977 -0.3227 -0.2828 -0.1497
    1W        W31925  11.064  21.783   5.696  0.1509 -0.2466 -0.0429
    1W        W31926  20.992   5.890   9.400  0.0611  0.0004  0.1712
    1W        W31927   5.958  15.187   6.730 -0.1293  0.0266 -0.1061
    1W        W31928  28.152  17.355   2.395 -0.2037 -0.0314 -0.1569
    1W        W31929   4.219   6.331   2.248  0.1160  0.2721  0.0764
    1W        W31930  14.509  27.166   3.029  0.1291  0.0309 -0.3019
    1W        W31931  19.334  26.482   2.899  0.1160  0.0645 -0.1716
    1W        W31932   7.502  17.263   0.710 -0.0675  0.0767  0.0938
    1W        W31933   2.555   7.576   0.839  0.0267  0.0517  0.2596
    1W        W31934  23.605   1.381   1.678 -0.0083 -0.1328  0.0933
    1W        W31935  10.115   3.457   8.202  0.5232 -0.0410 -0.1122
    1W        W31936   8.456  15.176   0.776  0.3097 -0.0050 -0.1785
    1W        W31937  10.366  20.107   0.384 -0.1394 -0.0174  0.0373
    1W        W31938  21.910  26.103   8.452 -0.1406 -0.0904 -0.2288
    1W        W31939  28.310  10.344   8.627 -0.0396 -0.0000  0.1267
    1W        W31940  14.569  16.243   7.720  0.1051  0.1318  0.0554
    1W        W31941  19.024  14.804   7.438 -0.1007 -0.0112 -0.1585
    1W        W31942   3.201  14.653   0.984  0.4191  0.1506  0.3204
    1W        W31943  19.346   9.323   3.289 -0.1716 -0.0115  0.0284
    1W        W31944   4.570  12.206   0.806 -0.1375 -0.2078 -0.2487
    1W        W31945  16.725  11.618   8.297 -0.2016 -0.2965  0.3233
    1W        W31946   1.780  19.508   8.598  0.1387 -0.0603  0.2573
    1W        W31947  14.947   2.261   7.927 -0.2411 -0.2988 -0.2624
    1W        W31948   7.322  15.977   8.908  0.0755  0.0234  0.3086
    1W        W31949  11.802  20.795   8.658 -0.1008 -0.3124  0.0184
    1W        W31950  19.670   4.008   8.915  0.0671 -0.3680 -0.2733
    1W        W31951   8.686  10.247   9.536 -0.1491  0.1242 -0.1879
    1W        W31952  16.242  16.446   7.914 -0.0048 -0.3048  0.0383
    1W        W31953   6.877  14.782   7.362  0.0153  0.0664  0.0311
    1W        W31954  27.191  14.385   6.138 -0.1130  0.0858  0.1987
    1W        W31955  15.570   8.199   9.138 -0.1647 -0.0530 -0.0870
    1W        W31956   4.446  12.976   1.506  0.1562 -0.1779 -0.2106
    1W        W31957  17.862   8.118   2.172  0.2098 -0.0313  0.1289
    1W        W31958  26.763  20.271   6.888 -0.0753  0.1498 -0.1451
    1W        W31959  15.394   6.748   3.166 -0.0500 -0.3346  0.0299
    1W        W31960   9.177   4.797   0.291  0.0207 -0.0303  0.1924
    1W        W31961  19.759   7.257   1.079  0.3198  0.1093 -0.0600
    1W        W31962   6.185  16.879   6.512 -0.1878 -0.2100 -0.0574
    1W        W31963  15.579  18.296   9.219  0.1130  0.1723  0.1401
    1W        W31964  27.861   5.711   6.467 -0.1267 -0.1814 -0.1431
    1W        W31965  15.206  24.814   2.770 -0.1442  0.0768 -0.1280
    1W        W31966   2.508   1.747   7.281  0.0715  0.1444  0.0936
    1W        W31967  21.427  11.707   0.079 -0.1121  0.0563  0.2875
    1W        W31968  18.789  27.488   6.475  0.1328 -0.2139  0.2549
    1W        W31969   2.867   1.703   2.719  0.1903  0.3057 -0.0552
    1W        W31970   1.503  18.976   1.486 -0.0138 -0.1974 -0.0948
    1W        W31971   2.786  26.754   7.223 -0.2821  0.0811  0.0956
    1W        W31972  24.841   5.016   7.551 -0.1222 -0.1211  0.8170
    1W        W31973  27.276   8.208   8.567  0.1466 -0.2499  0.2308
    1W        W31974  29.021  26.997   1.950 -0.0116  0.2312 -0.2025
    1W        W31975   1.563  26.801   7.850  0.0825 -0.1927  0.0156
    1W        W31976   4.454   4.066   2.715  0.1520  0.0351  0.0702
    1W        W31977  21.731  28.284   0.559 -0.1290 -0.2535 -0.1494
    1W        W31978  14.709   1.927   8.925 -0.1672  0.1842  0.0464
    1W        W31979  21.855  11.341   8.309 -0.0383 -0.2308 -0.1477
    1W        W31980  11.994  26.445   8.107  0.1922 -0.1599 -0.0276
    1W        W31981   8.741   0.904   2.095  0.4611  0.0854 -0.0060
    1W        W31982   7.866  13.324   7.120  0.0127 -0.1317 -0.0352
    1W        W31983  19.535   6.826   2.886 -0.0117 -0.0436 -0.0930
    1W        W31984   9.932  28.856   9.456  0.1307  0.0091  0.1793
    1W        W31985  27.473  22.579   1.386  0.0887  0.0270 -0.2482
    1W        W31986  16.554  10.292   2.532 -0.0437  0.1787  0.0464
    1W        W31987  12.606  18.282   1.309  0.1913 -0.1423  0.4005
    1W        W31988   6.813  14.672   8.643 -0.2100 -0.0443  0.3032
    1W        W31989  16.801  16.482   1.450 -0.0201  0.1483  0.0280
    1W        W31990  13.157   1.847   8.185 -0.0278  0.0041 -0.1552
    1W        W31991  21.511  23.706   7.527 -0.2229  0.0068  0.2391
    1W        W31992  21.214   3.310   9.513  0.0202 -0.2966  0.0792
    1W        W31993  23.822  25.640   9.384 -0.0939 -0.2036 -0.1078
    1W        W31994   6.409  25.853   1.746 -0.2326  0.1568  0.0907
    1W        W31995   9.949  18.720   7.651  0.0854 -0.1797 -0.0130
    1W        W31996  18.531  20.026   8.425  0.4193 -0.0041 -0.1434
    1W        W31997  22.667  11.408   6.124 -0.2722 -0.0225  0.2355
    1W        W31998  23.023  15.973   0.235  0.0014  0.1310  0.1863
    1W        W31999  12.251  24.976   8.957 -0.2807 -0.3059 -0.0089
    1W        W32000  20.183   7.488   0.838  0.1741 -0.0831 -0.2160
    1W        W32001  18.988  28.162   1.003 -0.0094  0.0680  0.1059
    1W        W32002  14.958  16.893   8.302  0.1056 -0.1859 -0.3004
    1W        W32003  13.520  15.095   7.243 -0.0281 -0.0803  0.0217
    1W        W32004  11.410  18.794   8.287  0.0732  0.0566 -0.2864
    1W        W32005   9.184  11.080   8.473 -0.2053  0.1454  0.5027
    1W        W32006   0.424  26.226   7.565 -0.2431  0.1874 -0.0067
    1W        W32007  16.262   0.298   8.120 -0.1001  0.1542  0.0883
    1W        W32008   5.888  17.168   0.959  0.0837 -0.1694 -0.2389
    1W        W32009  10.897   8.145   0.113  0.1937  0.2661  0.4190
    1W        W32010  11.675  16.672   7.976 -0.2242 -0.1567  0.3276
    1W        W32011  24.684   6.625   1.171  0.2041  0.1378  0.1068
    1W        W32012   4.140  16.761   2.721  0.1907  0.1047  0.1512
    1W        W32013   2.474  26.124   1.410 -0.4684 -0.2084 -0.1143
    1W        W32014  16.299  21.818   7.740 -0.0852  0.0515 -0.1886
    1W        W32015  17.434  20.001   2.433 -0.1884  0.2377  0.0963
    1W        W32016   5.987   0.402   3.347  0.1963  0.0676 -0.5392
    1W        W32017   0.300  22.635   7.447  0.2161 -0.0640 -0.0262
    1W        W32018  13.100  28.230   2.645  0.1728 -0.3101 -0.1052
    1W        W32019  26.881  22.071   0.717 -0.3599  0.1160  0.1553
    1W        W32020   7.239  23.366   1.746 -0.2663 -0.0956  0.2686
    1W        W32021  13.259  27.385   3.841  0.0165  0.0041 -0.0391
    1W        W32022   3.076   8.135   8.390  0.0932  0.0880 -0.0511
    1W        W32023  13.033  24.910   8.913  0.0517  0.0283  0.0152
    1W        W32024  19.539  23.235   2.203  0.0575 -0.0952 -0.4731
    1W        W32025  22.458  12.626   1.990 -0.1348  0.0062 -0.0726
    1W        W32026  24.761   7.692   0.277 -0.1544 -0.0599 -0.0369
    1W        W32027   0.827   6.351   8.499  0.0783  0.2954 -0.0702
    1W        W32028  28.638  20.746   8.051  0.0594  0.4455  0.1921
    1W        W32029  17.947  14.286   0.605  0.0078  0.0668  0.0350
    1W        W32030  28.694  27.200   2.306  0.0348 -0.0625 -0.2799
    1W        W32031   4.920   2.080   9.474  0.2114  0.3112  0.1179
    1W        W32032   7.517  24.093   6.629 -0.1320  0.0091  0.6513
    1W        W32033  16.674  22.132   8.026 -0.1846  0.0780 -0.1276
    1W        W32034  22.861   3.806   6.575  0.1447  0.1903 -0.2512
    1W        W32035   6.637  29.242   1.310 -0.0615 -0.0486  0.0678
    1W        W32036  15.417  17.402   8.660 -0.0024  0.1184  0.1079
    1W        W32037   6.704   8.500   2.652  0.1345 -0.2094  0.1058
    1W        W32038   0.871  13.033   9.616  0.0749 -0.4366 -0.0297
    1W        W32039  12.026  11.901   1.520 -0.1922 -0.0093  0.0329
    1W        W32040   3.437  12.569   0.088 -0.0965  0.2690  0.1433
    1W        W32041  22.824  22.132   9.271  0.0021  0.1974 -0.1043
    1W        W32042   1.125   6.705   1.711 -0.2330 -0.1971  0.1385
    1W        W32043   7.836   7.086   1.019  0.0195 -0.2347  0.1883
    1W        W32044  19.142  19.097   3.304  0.0042  0.0269 -0.1655
    1W        W32045  16.819  26.526   7.717  0.1224  0.3007  0.0599
    1W        W32046  28.590   5.433   0.848 -0.0469  0.1276 -0.0731
    1W        W32047   9.838   2.194   7.799 -0.1131 -0.3044  0.1560
    1W        W32048   7.456   6.348   7.191 -0.3055 -0.4878 -0.1547
    1W        W32049  18.435  26.608   2.835  0.0687 -0.1034 -0.2865
    1W        W32050   5.917  10.130   9.281 -0.0641 -0.2272 -0.0508
    1W        W32051  27.010  10.584   0.139 -0.0381 -0.2126 -0.0746
    1W        W32052  28.441   2.825   1.413 -0.0974  0.0070 -0.1482
    1W        W32053   6.710  26.429   1.900 -0.1103  0.2083  0.1246
    1W        W32054  14.102  20.653   8.936  0.1228 -0.1174  0.2947
    1W        W32055   0.339  11.683   8.316  0.3056  0.1225 -0.1190
    1W        W32056  12.486  27.186   1.702 -0.4013  0.0724 -0.1624
    1W        W32057  19.542  13.437   1.051  0.0665  0.0183  0.0258
    1W        W32058  15.767  27.402   0.527 -0.6815  0.0756 -0.1234
    1W        W32059  18.753   0.356   0.266 -0.4132 -0.0796  0.3278
    1W        W32060   1.232  25.325   1.531 -0.0935  0.3486  0.0656
    1W        W32061   4.475   7.527   1.164 -0.0358 -0.2506 -0.0373
    1W        W32062  25.184   8.406   0.150  0.0558 -0.0602 -0.0664
    1W        W32063  25.090   1.356   2.436 -0.4427  0.1004 -0.2177
    1W        W32064  10.965  16.907   0.676 -0.0557  0.2272 -0.1568
    1W        W32065   3.132   9.152   1.581  0.1837 -0.2372 -0.0044
    1W        W32066  22.543  26.679   9.094  0.1700  0.0828 -0.0068
    1W        W32067  24.963  17.312   9.596  0.0173  0.2005  0.0537
    1W        W32068  27.602  17.567   7.706 -0.0622  0.1053 -0.2170
    1W        W32069   4.065   7.973   6.402  0.4257 -0.1471 -0.3541
    1W        W32070   0.906  13.198   5.876  0.0636  0.1165 -0.2430
    1W        W32071   3.862  16.239   2.637 -0.1321  0.0020 -0.0315
    1W        W32072   7.039  22.774   7.892 -0.1264  0.1738 -0.0970
    1W        W32073  16.572   5.971   8.956 -0.1482  0.3944  0.0017
    1W        W32074   0.046  28.483   1.443  0.1098 -0.1412  0.1907
    1W        W32075  18.088   5.924   0.907  0.1084  0.1506 -0.1693
    1W        W32076   0.750   1.337   2.350  0.0741  0.0458  0.0448
    1W        W32077  23.411  28.315   8.047 -0.2765 -0.1233  0.1872
    1W        W32078  16.233  11.288   7.514  0.0911  0.0756  0.2081
    1W        W32079  18.522  16.641   8.011 -0.1881  0.2319 -0.1722
    1W        W32080  20.782  18.845   1.419  0.1426 -0.0709  0.0559
    1W        W32081   3.450   3.562   2.750  0.1086 -0.4311  0.2064
    1W        W32082   1.514  14.799   2.156 -0.0367 -0.1084 -0.0896
    1W        W32083  25.641   5.501   0.114  0.0053 -0.2315  0.1775
    1W        W32084   4.385  16.589   1.559 -0.2130  0.0866  0.2785
    1W        W32085  22.196  16.047   8.761  0.0450 -0.1274  0.0972
    1W        W32086  23.536   8.397   2.036 -0.1752  0.0321  0.2297
    1W        W32087  16.964  12.971   7.676  0.3622  0.0740 -0.0626
    1W        W32088   7.798  20.878   8.729  0.2124 -0.1626  0.3229
    1W        W32089  23.641   5.136   7.572  0.1607 -0.0349 -0.1780
    1W        W32090  26.873  24.559   6.909 -0.1250 -0.1736 -0.1325
    1W        W32091   8.627   5.704   2.673  0.0792  0.0415 -0.2894
    1W        W32092   4.929   1.134   0.823  0.0037 -0.0133  0.0034
    1W        W32093   3.714   5.587   6.984 -0.1468  0.0639 -0.1929
    1W        W32094   7.902   5.019   3.838 -0.0355  0.0198  0.0079
    1W        W32095  23.788  26.891   9.000 -0.0101 -0.2047  0.0769
    1W        W32096  25.637  21.651   6.701  0.2152  0.0455  0.0142
    1W        W32097  16.689  25.673   0.621  0.2195 -0.3008 -0.3355
    1W        W32098   0.274   3.567   0.844  0.0974  0.1940  0.0841
    1W        W32099   6.229  20.485   6.265 -0.0184 -0.1728 -0.0903
    1W        W32100   0.910  12.635   1.963  0.0703 -0.3742  0.1963
    1W        W32101   8.737   6.234   1.204 -0.1981  0.1335  0.1582
    1W        W32102  28.586   7.776   7.109 -0.1173  0.0053  0.0389
    1W        W32103  18.264   9.079   2.328 -0.0757  0.0942  0.0867
    1W        W32104   5.701  27.758   8.286 -0.2082 -0.0525 -0.0352
    1W        W32105  11.613  22.987   0.067 -0.1456  0.1681 -0.0328
    1W        W32106  25.024   4.115   6.483 -0.2379  0.2941  0.1628
    1W        W32107  14.531   8.983   2.302  0.0542 -0.1114  0.4101
    1W        W32108  19.944  19.255   9.200 -0.0551 -0.0986  0.1347
    1W        W32109  10.525  27.894   0.808  0.0848  0.0649  0.0709
    1W        W32110   9.702  23.311   0.579  0.2121 -0.1997 -0.3710
    1W        W32111   5.090  22.220   0.781  0.1772 -0.2953  0.2400
    1W        W32112   8.734   2.169   7.650  0.2128 -0.3140  0.1514
    1W        W32113   5.978   4.398   0.833  0.0035  0.1654  0.1018
    1W        W32114  18.712   8.493   9.324  0.0209 -0.1177 -0.2491
    1W        W32115   0.694  24.135   8.928 -0.2031 -0.2541 -0.3678
    1W        W32116   4.298  19.344   0.276 -0.4811  0.2675  0.1129
    1W        W32117  25.570   3.431   8.152  0.1078 -0.1184 -0.3500
    1W        W32118  28.667   2.666   8.551  0.0685  0.0116 -0.1988
    1W        W32119   3.517  15.770   0.863  0.0323 -0.0520  0.2406
    1W        W32120   0.367  25.361   9.502  0.0857  0.0996 -0.2348
    1W        W32121   0.008  12.945   3.190 -0.3517  0.0169 -0.1161
    1W        W32122   3.380  22.728   2.028 -0.1607  0.1889  0.2953
    1W        W32123   5.850  27.324   8.125 -0.0717  0.1720 -0.0169
    1W        W32124  22.418  19.428   1.281  0.2255  0.2434  0.0928
    1W        W32125   9.848  27.427   0.259  0.0920 -0.0862 -0.0196
    1W        W32126  11.310   4.176   0.760 -0.0708  0.3620 -0.3190
    1W        W32127   6.559  23.776   6.442 -0.0778 -0.0273 -0.0039
    1W        W32128  22.323  20.916   0.888  0.0257  0.1293  0.0061
    1W        W32129   1.771   3.211   7.544  0.1018 -0.0935  0.1509
    1W        W32130   0.806   4.623   9.568 -0.0068 -0.3511 -0.2449
    1W        W32131   7.273   4.013   2.079  0.1178 -0.1645  0.0215
    1W        W32132  14.047   3.597   8.317 -0.4852 -0.2064  0.0951
    1W        W32133   2.732  23.695   8.901  0.3063 -0.0277  0.2131
    1W        W32134   5.917  14.713   0.791 -0.0637  0.0423  0.0714
    1W        W32135  22.874   9.802   2.871 -0.3390  0.1030 -0.2855
    1W        W32136  24.954  18.323   7.364 -0.0044 -0.2273 -0.0046
    1W        W32137  20.872   5.245   1.967 -0.0598  0.0629 -0.0649
    1W        W32138   7.891   6.151   1.542  0.1589 -0.2127 -0.0170
    1W        W32139  18.255  10.202   9.494 -0.0384 -0.0580  0.4053
    1W        W32140  22.621  19.244   8.954  0.0426  0.0097  0.1147
    1W        W32141   1.323  12.946   5.991 -0.1035 -0.0562  0.0135
    1W        W32142  13.599   4.278   2.384  0.4933  0.1776 -0.0395
    1W        W32143  16.235  27.401   2.351  0.1142  0.2838 -0.2566
    1W        W32144  14.659   2.726   3.188 -0.2078  0.5188  0.0157
    1W        W32145   6.791  28.643   1.182 -0.0068  0.1999 -0.3399
    1W        W32146  28.148  19.366   0.113  0.0678 -0.0051  0.1015
    1W        W32147  17.761  28.023   1.636  0.3729  0.3087  0.4967
    1W        W32148  10.700   0.032   1.482  0.1254 -0.2218  0.1542
    1W        W32149  19.591  14.838   7.645  0.0706  0.0206 -0.0422
    1W        W32150  17.231  14.615   1.227 -0.0854  0.1317  0.0720
    1W        W32151   9.057  27.563   1.643 -0.2077 -0.0812 -0.0771
    1W        W32152   9.365   4.229   9.336  0.2597 -0.2032  0.3563
    1W        W32153  20.761   9.911   8.290 -0.0499  0.0129 -0.1245
    1W        W32154   5.405  13.614   9.511  0.3127 -0.1248  0.5268
    1W        W32155  15.268   1.236   8.651 -0.0060 -0.1471 -0.1424
    1W        W32156  13.646   1.082   1.834 -0.0503 -0.2306  0.0219
    1W        W32157  19.395  11.280   9.566  0.2089  0.1559  0.1211
    1W        W32158  18.762  10.163   3.222  0.3241 -0.0967 -0.0717
    1W        W32159   5.968  10.280   8.228  0.0862 -0.2687 -0.2796
    1W        W32160   3.316  18.250   0.397 -0.0590 -0.0353 -0.0165
    1W        W32161  19.592  17.796   1.816  0.0797 -0.1297 -0.2024
    1W        W32162   9.425   1.938   2.645  0.1344  0.2641 -0.2567
    1W        W32163  16.351   1.367   7.860  0.0899 -0.3117 -0.2087
    1W        W32164   6.791  15.110   0.061  0.3013 -0.3075  0.1047
    1W        W32165   6.519  28.436   2.772  0.0436 -0.2058  0.1810
    1W        W32166  29.209  26.638   8.284 -0.1388 -0.1254 -0.3251
    1W        W32167  19.298  27.679   7.272 -0.1406  0.0154 -0.0567
    1W        W32168  13.192  27.825   0.763  0.1373 -0.0332 -0.0959
    1W        W32169   6.666  21.766   7.353  0.2485 -0.1457 -0.0815
    1W        W32170   1.354  25.154   9.339 -0.0831 -0.2708  0.0559
    1W        W32171   6.470  27.505   9.540  0.2195 -0.0328  0.1619
    1W        W32172   3.255  10.652   6.623 -0.0672 -0.0536  0.2665
    1W        W32173   1.475  24.710   2.379 -0.3254  0.1489 -0.1057
    1W        W32174   9.693  15.477   7.843 -0.1429  0.1689 -0.0869
    1W        W32175   5.114  15.281   0.253 -0.0329 -0.2762  0.0852
    1W        W32176   3.759   4.769   8.112 -0.0510  0.2192 -0.1059
    1W        W32177  10.606  18.222   1.250 -0.0411  0.0819  0.3271
    1W        W32178  16.430  26.669   9.361  0.2482 -0.1170  0.0801
    1W        W32179  10.057   5.457   3.264 -0.0161 -0.0976  0.0800
    1W        W32180   1.402  26.240   3.697  0.0656  0.0705  0.0098
    1W        W32181  10.531  17.888   7.400  0.1859  0.0699  0.0006
    1W        W32182  24.436   5.397   0.196 -0.0937  0.3837 -0.1860
    1W        W32183  12.986  20.089   7.996 -0.2268 -0.0941  0.1953
    1W        W32184   2.020   8.991   0.151  0.0781 -0.4034 -0.0091
    1W        W32185  18.902   7.265   7.616  0.0694  0.1371  0.0208
    1W        W32186  13.630  13.728   0.383 -0.1075  0.0999  0.1687
    1W        W32187  14.532   0.929   1.063  0.3889 -0.0731  0.1427
    1W        W32188   1.848  25.461   8.091  0.2114  0.2544 -0.0242
    1W        W32189   7.651  20.500   3.121 -0.1597 -0.0702 -0.0701
    1W        W32190   0.459  19.574   6.585  0.2479 -0.1527  0.0047
    1W        W32191   3.047  27.979   1.403  0.0676 -0.2013 -0.3332
    1W        W32192  29.111  24.512   8.668  0.0216  0.1162 -0.1895
    1W        W32193  16.549   6.632   9.536 -0.0877 -0.3242  0.3320
    1W        W32194   8.864  15.203   2.640  0.1329 -0.0655  0.3424
    1W        W32195  19.898  29.109   7.372 -0.3588  0.1062  0.0491
    1W        W32196   1.379  25.935   0.995 -0.0924  0.1937  0.1746
    1W        W32197   6.797  27.247   7.266  0.1023 -0.2099  0.1338
    1W        W32198   4.603   6.851   9.337 -0.0089  0.1030 -0.0762
    1W        W32199  12.598   1.247   3.645  0.2605  0.2366 -0.1799
    1W        W32200  15.933  12.964   1.615 -0.2459 -0.0475  0.0564
    1W        W32201   6.393   1.894   7.226  0.1833 -0.2297  0.1627
    1W        W32202   5.237  11.881   1.503 -0.0322  0.1517  0.3583
    1W        W32203  22.053  18.409   8.307 -0.0444  0.0456  0.1186
    1W        W32204  24.118  14.469   9.004 -0.1924  0.4365 -0.0796
    1W        W32205  14.748  11.699   7.239  0.2385  0.0795 -0.1033
    1W        W32206   6.625  19.606   7.102  0.1359 -0.1640 -0.0935
    1W        W32207  28.616  20.875   9.428  0.0071 -0.1806  0.1204
    1W        W32208  13.075  11.299   1.082 -0.2895  0.1664  0.1856
    1W        W32209  10.418  24.083   6.559 -0.1392  0.1207  0.2127
    1W        W32210  27.132  17.058   9.540  0.2492 -0.2310 -0.2626
    1W        W32211  23.784   3.441   8.321 -0.1178  0.0379  0.0622
    1W        W32212   5.982   6.612   1.169 -0.0857  0.0558  0.2223
    1W        W32213  11.116  13.962   7.519 -0.0872  0.2417  0.0477
    1W        W32214   8.233   2.218   7.818 -0.0592  0.4064 -0.3734
    1W        W32215  19.075   5.735   8.339  0.0315 -0.0930  0.0965
    1W        W32216   7.112   2.302   9.087 -0.0443  0.0586  0.2662
    1W        W32217   1.771  22.567   1.924  0.2555 -0.0043  0.0151
    1W        W32218   2.620   3.359   1.936  0.3553 -0.1901 -0.1597
    1W        W32219  22.257  29.326   6.922  0.1482  0.0211  0.0408
    1W        W32220   4.191  28.354   7.364 -0.2625 -0.2038 -0.0159
    1W        W32221  26.738   2.599   0.522  0.3178  0.2530 -0.2116
    1W        W32222  26.073  23.856   8.154  0.1365  0.4063 -0.3709
    1W        W32223   3.926  13.523   8.194 -0.0237 -0.2625 -0.0175
    1W        W32224  25.068  13.106   9.667  0.2152 -0.2508  0.0310
    1W        W32225   3.478   1.333   1.408 -0.2184 -0.0737 -0.0974
    1W        W32226  16.901  15.515   8.395 -0.1638  0.0537 -0.2810
    1W        W32227   1.379   4.864   7.906  0.2504  0.2624 -0.0985
    1W        W32228  22.180  23.901   2.154  0.1721  0.1934 -0.0673
    1W        W32229  24.916  24.261   2.172 -0.0064  0.0763  0.1079
    1W        W32230  23.331  12.323   6.870 -0.0514  0.1329 -0.1397
    1W        W32231  27.551   7.781   8.628  0.1160 -0.0524 -0.1421
    1W        W32232  26.852   7.776   8.168  0.1253  0.0283 -0.3136
    1W        W32233   0.049   6.096   2.921 -0.3038  0.3242 -0.1323
    1W        W32234   8.452   1.765   7.617 -0.2342 -0.2173 -0.0541
    1W        W32235  20.934   3.664   0.714  0.1563  0.0962 -0.0462
    1W        W32236  13.942   9.245   1.370  0.0874 -0.1269  0.1153
    1W        W32237  14.659   0.480   0.264 -0.0760  0.0362  0.0051
    1W        W32238  26.949  25.535   2.482  0.0979 -0.0839  0.0914
    1W        W32239  21.128  29.355   1.403 -0.2390  0.0387  0.4487
    1W        W32240   8.973  18.208   1.042  0.3214 -0.1507 -0.0250
    1W        W32241  11.155  27.947   8.401  0.2667  0.0900  0.0028
    1W        W32242   9.654  27.009   0.620 -0.0726 -0.2444 -0.1728
    1W        W32243  19.453  18.812   0.412  0.4203  0.2601 -0.1500
    1W        W32244   6.571   2.627   1.021 -0.1077 -0.2760 -0.0081
    1W        W32245  14.829   8.459   9.223  0.1393  0.0530 -0.0319
    1W        W32246  10.129   8.069   1.767 -0.1752 -0.0353 -0.1475
    1W        W32247  20.767   1.660   2.798  0.0648 -0.0664 -0.0132
    1W        W32248   8.280  17.280   0.392  0.1503  0.0016 -0.0166
    1W        W32249  17.771  23.058   7.824 -0.0444 -0.1268  0.4123
    1W        W32250  13.230  22.262   1.883 -0.0565  0.2385  0.0139
    1W        W32251  12.938  18.731   2.149 -0.0027 -0.3375 -0.0394
    1W        W32252  13.960  18.900   8.237 -0.2662  0.2624  0.0877
    1W        W32253  24.633  25.256   3.036 -0.0911  0.0406  0.3975
    1W        W32254  23.086  26.505   0.063 -0.0985  0.1764 -0.0258
    1W        W32255  18.294   8.433   9.620 -0.2611 -0.0088  0.3343
    1W        W32256  22.402  24.853   6.641  0.1289 -0.0395  0.0562
    1W        W32257   3.370  26.933   9.451  0.1552 -0.2028 -0.0330
    1W        W32258   7.026  18.591   1.747 -0.0434 -0.1545 -0.4760
    1W        W32259   7.701   5.318   1.117  0.0049  0.1313  0.0353
    1W        W32260   9.307  23.694   7.372  0.1177  0.1135  0.0011
    1W        W32261  16.968   7.971   0.716 -0.1046  0.0485  0.0426
    1W        W32262   2.961  27.287   1.491  0.1661 -0.0833 -0.1589
    1W        W32263   0.618  12.753   6.728 -0.1654  0.0757 -0.0613
    1W        W32264  24.137   9.794   7.239  0.0416 -0.1563 -0.4107
    1W        W32265  17.105  19.745   8.452  0.1630  0.2358  0.3085
    1W        W32266  28.625  14.751   8.729  0.1605  0.0985 -0.0999
    1W        W32267  16.519  28.209   0.974 -0.3035 -0.1006  0.1069
    1W        W32268   9.675  16.755   2.610  0.1921 -0.1849 -0.1669
    1W        W32269  18.269  28.168   7.878 -0.0409  0.2032  0.0830
    1W        W32270   7.578   9.631   9.216 -0.1025 -0.2701 -0.2115
    1W        W32271  14.068  27.068   1.688  0.0406  0.1360 -0.3914
    1W        W32272   9.506  22.300   7.533  0.1139  0.1045  0.2743
    1W        W32273  27.184   5.596   1.355  0.2029 -0.0698  0.2997
    1W        W32274  10.226  24.462   0.186  0.0249  0.0692 -0.3799
    1W        W32275  21.593  14.566   6.869  0.0879 -0.0320 -0.0590
    1W        W32276  24.421  15.127   0.788 -0.0763  0.1702 -0.1969
    1W        W32277  13.712  11.722   1.068 -0.3423  0.2008  0.3428
    1W        W32278  16.926   8.394   8.652 -0.2959 -0.0164  0.1765
    1W        W32279  21.810  16.260   7.344 -0.1400  0.1730  0.1735
    1W        W32280   8.179  10.167   0.037 -0.1317  0.2621  0.1269
    1W        W32281  25.227   2.454   8.732 -0.0653  0.0493 -0.1123
    1W        W32282  23.463  14.023   1.785  0.4873  0.0300  0.0604
    1W        W32283   3.665  14.516   9.454  0.2186  0.0421  0.3392
    1W        W32284  24.785  13.941   1.070 -0.1904 -0.1382  0.0110
    1W        W32285   8.993   4.061   2.685 -0.3828  0.0770  0.1748
    1W        W32286  20.357   8.457   2.634  0.0356 -0.3700 -0.1434
    1W        W32287  23.670  12.026   8.087  0.0854 -0.3688  0.0771
    1W        W32288  29.309  28.385   6.894 -0.1409 -0.2140  0.1828
    1W        W32289   7.651  15.088   1.493  0.2381  0.1790 -0.0735
    1W        W32290  17.762  14.777   0.573  0.1563  0.0896 -0.0037
    1W        W32291   1.546   8.216   7.759 -0.0124 -0.3552 -0.0315
    1W        W32292   7.068  12.705   8.071  0.2397  0.0679 -0.0671
    1W        W32293  16.470   7.645   7.858 -0.3740  0.0734 -0.4791
    1W        W32294   5.363  28.626   7.114  0.0535  0.3850  0.2948
    1W        W32295  14.513  12.032   7.795 -0.1820  0.2632  0.1256
    1W        W32296   4.516  10.515   6.790 -0.2428  0.1854  0.0034
    1W        W32297  27.139  25.123   9.666 -0.0279 -0.0547 -0.2311
    1W        W32298   5.373   9.269   6.954 -0.3341 -0.0788  0.0988
    1W        W32299   9.092  27.658   9.549 -0.1046  0.0335  0.1512
    1W        W32300  14.098   5.845   2.953  0.2313 -0.0798  0.0275
    1W        W32301   5.033  17.909   1.875 -0.2464 -0.0029  0.0603
    1W        W32302   4.713  22.497   9.547 -0.2851 -0.1695 -0.3159
    1W        W32303  18.572   0.249   1.381  0.1559  0.1991  0.3726
    1W        W32304  23.439  23.711   3.676 -0.0497  0.0540 -0.0107
    1W        W32305  14.359   5.684   3.376  0.0996 -0.1492  0.3133
    1W        W32306   2.976  13.063   6.358 -0.1986 -0.0439 -0.3150
    1W        W32307   0.349  16.608   1.093 -0.1796  0.0026  0.3265
    1W        W32308   0.783  23.478   7.639 -0.1849  0.0064 -0.1359
    1W        W32309  13.811  16.771   9.324  0.1090  0.1890  0.0187
    1W        W32310   5.472   9.735   2.376 -0.0591 -0.0023  0.0462
    1W        W32311  16.582  12.135   2.697  0.1132  0.2084 -0.0988
    1W        W32312  17.288  17.860   8.520 -0.2562 -0.2617  0.0973
    1W        W32313  17.672  19.642   2.811 -0.0209 -0.1832 -0.1727
    1W        W32314  11.844  23.915   1.592 -0.2484  0.0506 -0.2608
    1W        W32315  20.022   9.876   1.064 -0.0548 -0.0267  0.0532
    1W        W32316   7.729   8.022   7.577 -0.3115 -0.0507  0.2306
    1W        W32317  24.168  24.417   0.343 -0.2044 -0.0890  0.2828
    1W        W32318  22.776  26.178   1.959 -0.5992 -0.0022 -0.0264
    1W        W32319  19.500  21.951   8.995  0.1976 -0.3557  0.0986
    1W        W32320  16.243   2.182   2.790 -0.1438 -0.0533  0.0827
    1W        W32321  23.770  16.904   1.313  0.0323  0.3236  0.0437
    1W        W32322   6.347  19.412   0.133  0.0702  0.0120 -0.3249
    1W        W32323   7.790  29.143   1.949 -0.3099 -0.0122 -0.0601
    1W        W32324  10.421  25.344   7.151  0.2374  0.0941 -0.1074
    1W        W32325   4.687  27.913   9.639  0.0518  0.0096 -0.1000
    1W        W32326   9.021   3.319   1.618 -0.3891 -0.0377  0.2480
    1W        W32327  13.381   1.520   7.828 -0.0271 -0.1858 -0.1626
    1W        W32328  28.737   5.389   0.383  0.0270  0.0185  0.1891
    1W        W32329  17.939  12.929   1.286  0.0293  0.1220 -0.1152
    1W        W32330  19.823   4.681   8.165  0.0685 -0.0421 -0.2405
    1W        W32331  22.526  20.239   0.327  0.3607 -0.1544  0.1005
    1W        W32332  27.911   9.199   7.416 -0.4526 -0.0845  0.0937
    1W        W32333  21.713  19.132   1.898 -0.1681 -0.2078 -0.1264
    1W        W32334  13.166  27.375   8.987  0.0720 -0.0240 -0.1566
    1W        W32335  24.209  26.517   7.319 -0.3255 -0.2178 -0.1984
    1W        W32336  22.945  10.057   7.450 -0.0201 -0.1279  0.1378
    1W        W32337   7.338  10.932   3.192 -0.0761 -0.0039  0.1611
    1W        W32338  11.833  15.316   0.547 -0.1767  0.1456  0.1192
    1W        W32339  17.007  13.232   7.261 -0.1537  0.0434  0.0647
    1W        W32340  18.624  10.589   2.921  0.0583  0.2129 -0.0137
    1W        W32341   0.348  19.744   7.104  0.3015  0.1811 -0.1066
    1W        W32342  18.489  22.742   0.099  0.0498  0.3397 -0.1020
    1W        W32343  22.325  24.235   8.154 -0.2351  0.0166 -0.3746
    1W        W32344   7.109  19.644   1.929 -0.2582  0.1087  0.3847
    1W        W32345  27.168  16.210   6.988 -0.0769 -0.1284 -0.0759
    1W        W32346   0.732  19.499   0.027  0.4397  0.2439  0.1672
    1W        W32347  12.605  12.503   1.877  0.2978 -0.2856 -0.1024
    1W        W32348  24.683  25.044   8.703 -0.0904 -0.1205 -0.3016
    1W        W32349   7.699   8.880   7.514  0.0937 -0.1502  0.2112
    1W        W32350  27.748  16.173   8.427 -0.3900 -0.1878 -0.3451
    1W        W32351  16.744  23.880   0.060 -0.1475 -0.3864 -0.2819
    1W        W32352   9.402   1.378   9.503 -0.0294  0.2305 -0.2020
    1W        W32353  21.126  29.202   0.892  0.0774 -0.1017 -0.0579
    1W        W32354  18.795  11.564   8.383 -0.1410  0.0296 -0.0135
    1W        W32355  13.563   5.871   0.866 -0.1356  0.0041  0.0969
    1W        W32356  14.853   0.021   7.468 -0.2845 -0.1956 -0.1074
    1W        W32357   6.986   0.233   1.103 -0.1900 -0.0406 -0.1063
    1W        W32358  23.044  26.636   2.443 -0.1680  0.0464 -0.0925
    1W        W32359  15.250  20.039   8.483 -0.1927 -0.0426 -0.2517
    1W        W32360  16.865  13.435   8.923  0.4812  0.0114  0.0193
    1W        W32361  13.698  11.159   2.366 -0.2235 -0.2357  0.0094
    1W        W32362   7.173  25.891   3.024 -0.0632  0.2579 -0.3174
    1W        W32363  21.552  22.816   1.565 -0.0525 -0.0742 -0.0002
    1W        W32364  14.480  27.379   1.601  0.0112  0.1003 -0.1187
    1W        W32365  20.447  15.956   1.949  0.0508 -0.4185 -0.0530
    1W        W32366  20.585  18.094   0.399  0.2577 -0.2458 -0.1964
    1W        W32367  19.129  16.301   9.214  0.0795  0.0631 -0.2925
    1W        W32368  14.960   8.312   0.520 -0.1120 -0.1142 -0.1991
    1W        W32369  11.311  18.609   0.034 -0.0019  0.0641 -0.0912
    1W        W32370  24.556  11.086   1.491 -0.1709 -0.1279 -0.2114
    1W        W32371  24.649  13.960   8.448  0.1680  0.1218 -0.0657
    1W        W32372  27.140  18.460   8.753  0.0733  0.0743 -0.0367
    1W        W32373  28.693   5.314   9.134 -0.0028  0.1805  0.1491
    1W        W32374  18.548  12.563   7.684 -0.1212 -0.0437  0.0677
    1W        W32375   1.771  19.847   6.151  0.1817 -0.1700  0.0895
    1W        W32376   6.431  21.818   6.925  0.1152  0.3077  0.0035
    1W        W32377   7.222  21.031   0.393 -0.0531 -0.0009  0.1509
    1W        W32378   9.209  21.469   8.736  0.0176 -0.1137 -0.4308
    1W        W32379  22.745  22.611   7.170  0.0838  0.0869  0.1406
    1W        W32380   0.730  14.760   7.800  0.2641 -0.1085 -0.2268
    1W        W32381  13.909  15.477   1.994 -0.2169 -0.1764 -0.0168
    1W        W32382   2.618  18.690   5.702  0.3556  0.6805 -0.1365
    1W        W32383   8.252  13.866   0.797  0.0862 -0.1500  0.0772
    1W        W32384  10.539   6.736   1.686 -0.1925  0.1651  0.1283
    1W        W32385   5.441  13.183   7.306  0.3890  0.3827 -0.1019
    1W        W32386  22.965  25.661   3.883  0.0673  0.0658 -0.2489
    1W        W32387   7.474  22.327   1.354  0.0460 -0.1025 -0.0148
    1W        W32388  29.167   9.066   9.389  0.1902  0.3413  0.0775
    1W        W32389   5.897  18.239   8.384  0.2285  0.2296 -0.0003
    1W        W32390   9.890   3.969   1.595 -0.1349 -0.1686  0.0363
    1W        W32391   7.766  15.461   6.712 -0.4153 -0.0240 -0.1666
    1W        W32392  15.370   1.906   0.525  0.1789 -0.2844  0.0922
    1W        W32393  28.773  17.030   9.085  0.2570  0.0161  0.2083
    1W        W32394  22.531   9.746   7.756 -0.1049  0.1709 -0.1286
    1W        W32395   0.397  13.803   7.804  0.1723  0.0064 -0.2067
    1W        W32396  11.121  23.502   0.538 -0.0974 -0.0586 -0.2694
    1W        W32397  20.337  17.559   1.661  0.0536  0.2266 -0.0328
    1W        W32398  26.418  16.315   0.197  0.4896 -0.3338 -0.2315
    1W        W32399  13.059   1.914   7.714  0.1391 -0.1116 -0.0409
    1W        W32400   9.918   2.935   1.070  0.0803  0.1622  0.1287
    1W        W32401  14.785   1.829   1.094 -0.2323 -0.2657 -0.1641
    1W        W32402  14.324  26.317   3.075  0.2328 -0.1714  0.3958
    1W        W32403   1.532  18.823   7.225 -0.0078 -0.2934 -0.0195
    1W        W32404   8.312  24.713   7.162  0.4935 -0.0214  0.0162
    1W        W32405  25.373   1.000   1.028 -0.5430  0.0577 -0.3582
    1W        W32406   3.576   6.922   1.604 -0.2662  0.1883 -0.0644
    1W        W32407  17.432  22.674   8.592  0.1690  0.1302  0.0436
    1W        W32408   0.641  11.624   0.152 -0.2042  0.1465  0.3025
    1W        W32409   6.848   6.791   1.339 -0.2819  0.1151  0.1181
    1W        W32410  24.301   2.123   9.497 -0.2454 -0.2559 -0.1172
    1W        W32411  18.468  25.701   7.466 -0.0854 -0.1122  0.2620
    1W        W32412  12.160  11.954   2.788 -0.0526 -0.1819 -0.0323
    1W        W32413  19.840  14.996   7.230 -0.4060  0.2922 -0.1825
    1W        W32414  16.189   6.915   9.661  0.0695  0.3173  0.0376
    1W        W32415  22.750  14.545   7.139 -0.2001 -0.1574  0.0497
    1W        W32416  15.397   0.371   1.224  0.0465 -0.2314 -0.1848
    1W        W32417  12.824  11.693   7.645  0.1079 -0.1004 -0.0403
    1W        W32418  12.180  16.624   7.855  0.1349 -0.0422 -0.1279
    1W        W32419  24.183  11.652   0.181  0.3606  0.2968 -0.2546
    1W        W32420   9.496  10.025   2.094  0.0756  0.1230  0.3782
    1W        W32421   8.648   6.954   1.754 -0.1531  0.1236  0.1623
    1W        W32422  11.128  23.215   6.726  0.1440 -0.2737  0.0521
    1W        W32423  24.311   2.161   6.913 -0.1073 -0.2804 -0.0184
    1W        W32424  11.035  21.120   8.973 -0.0429  0.1096 -0.3069
    1W        W32425  28.060   7.507   2.139  0.0268  0.3671 -0.0911
    1W        W32426   0.718   9.127   8.879 -0.1454  0.1022  0.2339
    1W        W32427  27.918   2.394   1.576 -0.1042 -0.1037 -0.1914
    1W        W32428  15.568  24.500   9.631 -0.0862 -0.0361 -0.0768
    1W        W32429   4.964  16.605   0.905 -0.0890  0.2408  0.1848
    1W        W32430   4.412  22.119   7.022  0.3076 -0.2231  0.3814
    1W        W32431  13.727  21.413   1.623  0.3269  0.0095 -0.0810
    1W        W32432   4.868  14.008   1.554 -0.1813 -0.1358  0.1090
    1W        W32433  18.002  22.608   2.120  0.0898  0.3109  0.3891
    1W        W32434   1.648  15.333   0.812  0.0682  0.0153  0.1956
    1W        W32435   5.605  10.331   7.902 -0.3010 -0.4414 -0.1423
    1W        W32436  14.010  18.762   1.578  0.1920 -0.0417 -0.2092
    1W        W32437  13.390   4.535   4.036 -0.1719  0.1612 -0.0394
    1W        W32438  18.825  26.332   0.564  0.4233  0.1404  0.0472
    1W        W32439   7.470   6.814   7.885 -0.4056  0.0452 -0.3514
    1W        W32440   8.568   0.540   9.587 -0.1927 -0.1545  0.4201
    1W        W32441  24.045   5.410   7.872  0.3900  0.3448 -0.0679
    1W        W32442  27.432  28.201   1.156 -0.1359  0.3247  0.3136
    1W        W32443   1.516  29.231   8.704 -0.3976 -0.0960 -0.1732
    1W        W32444  24.043  27.271   1.105  0.1415 -0.0306  0.1659
    1W        W32445  15.355   2.334   6.638 -0.2813 -0.4742  0.0581
    1W        W32446  11.785  24.452   2.721  0.1105  0.0430 -0.0897
    1W        W32447  25.818   6.805   1.805 -0.0485  0.5126 -0.1533
    1W        W32448  20.656  22.686   2.489  0.3515 -0.1561 -0.0218
    1W        W32449   6.649  18.889   1.069  0.1257 -0.0336 -0.0852
    1W        W32450   6.630   1.928   8.233  0.1458  0.3446 -0.1359
    1W        W32451  16.723  22.193   7.148  0.3205  0.0261  0.0169
    1W        W32452  11.245   6.011   1.455  0.0055  0.1680 -0.0540
    1W        W32453   4.850  15.301   7.601 -0.0282 -0.0701  0.1374
    1W        W32454   2.124  15.813   9.645 -0.0443  0.1999 -0.1739
    1W        W32455  15.815  20.211   1.228  0.0275 -0.1005 -0.1943
    1W        W32456  24.705  12.834   7.488  0.0714 -0.2043  0.2072
    1W        W32457  15.457  21.975   1.474 -0.2845 -0.1187  0.1297
    1W        W32458  22.134  12.134   7.288 -0.0045 -0.1718 -0.1810
    1W        W32459   9.277  20.183   9.078 -0.2517 -0.0794 -0.2095
    1W        W32460  19.741   5.999   0.905  0.1454  0.2601 -0.1274
    1W        W32461  24.051   1.704   9.033 -0.0234  0.0379  0.1988
    1W        W32462   4.261  21.617   6.842  0.2759 -0.0427  0.0746
    1W        W32463  15.027  18.908   2.065  0.0131  0.1307  0.0315
    1W        W32464  22.058  20.752   1.736 -0.1194  0.0623  0.0330
    1W        W32465  15.279  21.171   1.410  0.1187  0.1386 -0.3071
    1W        W32466   9.759  29.328   8.109 -0.0651 -0.1868 -0.1730
    1W        W32467  12.881   6.635   1.971  0.2029 -0.1266 -0.2839
    1W        W32468   5.279   3.183   9.594 -0.0246 -0.2767 -0.0064
    1W        W32469  26.210   1.705   7.524  0.0521  0.0034  0.1237
    1W        W32470   2.753   8.822   1.811  0.1890  0.4326  0.2409
    1W        W32471   3.243   9.676   6.814 -0.3126 -0.0866  0.1142
    1W        W32472  27.691  26.118   8.384  0.2177  0.4168 -0.2134
    1W        W32473   1.480  24.718   9.096 -0.1202  0.1065 -0.3947
    1W        W32474  27.115  26.782   6.971  0.0408  0.0426  0.0120
    1W        W32475   7.479  14.477   0.566  0.2241 -0.1895 -0.1500
    1W        W32476  13.314   4.783   9.308 -0.1229  0.0509  0.4469
    1W        W32477  20.592  21.778   1.928  0.2899 -0.1741  0.0319
    1W        W32478   7.913  18.453   9.483  0.1346 -0.0506  0.1502
    1W        W32479  20.410  10.458   1.734 -0.0038  0.0186  0.1998
    1W        W32480  18.665   1.085   1.143  0.0319 -0.0238  0.1528
    1W        W32481   2.746  26.441   6.739  0.1545  0.1686  0.1390
    1W        W32482   3.634  18.798   0.386  0.2084  0.0784  0.2910
    1W        W32483  27.805  24.569   0.553 -0.0889 -0.3641  0.1112
    1W        W32484  20.924  23.448   6.661 -0.1063 -0.2428 -0.0570
    1W        W32485  27.071   7.688   7.567 -0.2292  0.2282 -0.0362
    1W        W32486  10.923  16.279   0.710 -0.0570  0.2968  0.0033
    1W        W32487   7.180  14.552   9.015  0.1508 -0.2851  0.1125
    1W        W32488  11.825   7.162   0.943 -0.0602  0.0176 -0.0850
    1W        W32489  12.465   4.686   7.043  0.1950 -0.4036  0.3083
    1W        W32490  14.274  20.611   7.507 -0.2632 -0.0810  0.0534
    1W        W32491  24.869  17.812   7.829 -0.1767  0.0397 -0.0302
    1W        W32492  26.334   8.857   1.003  0.7149  0.0010 -0.1759
    1W        W32493  12.010   6.172   2.630  0.1319 -0.0962 -0.0496
    1W        W32494  21.566  12.003   1.132  0.1639 -0.1938  0.1179
    1W        W32495   5.910   8.598   0.339 -0.0479 -0.1438 -0.1656
    1W        W32496  17.959  22.319   1.706  0.0595 -0.1821  0.0532
    1W        W32497  11.806  22.144   7.092  0.0610 -0.2733 -0.2222
    1W        W32498  29.331  11.771   1.953  0.1478 -0.1020  0.2822
    1W        W32499   3.813  17.036   9.456  0.0939  0.2231 -0.1817
    1W        W32500   7.170  13.130   1.240  0.1365 -0.1970 -0.0061
    1W        W32501  24.940  13.532   8.233  0.0383 -0.0506  0.1216
    1W        W32502   2.572   2.544   9.339 -0.3170  0.2642 -0.0893
    1W        W32503  10.986  20.036   7.895  0.0792  0.0542 -0.2995
    1W        W32504   9.240  21.896   1.587  0.1635 -0.0363 -0.3307
    1W        W32505  27.892   2.862   1.259  0.0487 -0.0284  0.0612
    1W        W32506   7.661  20.527   1.790 -0.0769 -0.1381 -0.3083
    1W        W32507  20.347   0.230   7.652  0.3481  0.4012 -0.1054
    1W        W32508  23.618  26.541   6.652 -0.0820 -0.1686  0.0145
    1W        W32509  18.129  29.239   2.735  0.0447  0.1820  0.1180
    1W        W32510  23.750  25.205   9.647  0.0423 -0.1326  0.1164
    1W        W32511  20.780   5.481   7.820 -0.0238 -0.0855 -0.2631
    1W        W32512   4.188   6.015   3.208  0.0592 -0.0447 -0.4643
    1W        W32513  15.618  18.809   1.541 -0.0471  0.1068  0.0355
    1W        W32514   2.616   2.073   6.313 -0.2125  0.2375 -0.2939
    1W        W32515   2.777   4.363   8.072 -0.1842  0.5432  0.0096
    1W        W32516   9.983   5.321   7.232  0.0313 -0.2466 -0.1237
    1W        W32517   5.690  14.725   2.286  0.1946  0.2750 -0.1622
    1W        W32518  18.717  28.360   8.104 -0.1331  0.0936  0.1573
    1W        W32519  16.271  19.396   1.002  0.1374  0.2327  0.2920
    1W        W32520  15.014  11.354   1.772 -0.2236 -0.0362  0.0538
    1W        W32521   2.466  17.794   9.589 -0.3348 -0.2898  0.0258
    1W        W32522   6.201   5.498   7.956 -0.2526 -0.3128  0.3013
    1W        W32523  16.697  27.321   0.487  0.0496  0.0523 -0.2538
    1W        W32524  17.813  21.018   0.364 -0.3107 -0.1668  0.0963
    1W        W32525   7.105  18.995   6.878 -0.1343  0.0835 -0.1632
    1W        W32526   4.675  25.466   2.461 -0.1137 -0.0093 -0.0131
    1W        W32527   2.448  21.270   1.901 -0.0164  0.1972  0.1038
    1W        W32528   7.559  12.376   8.093 -0.4411  0.1893 -0.1848
    1W        W32529  27.796  11.650   1.877 -0.2523  0.0371  0.0348
    1W        W32530   2.854  25.689   9.333  0.3344  0.0303  0.0470
    1W        W32531  26.824  27.836   7.408  0.2573 -0.2503  0.1647
    1W        W32532   9.574   7.683   7.582 -0.1407  0.2861  0.0308
    1W        W32533  13.651   2.540   0.236 -0.1052 -0.1425 -0.2231
    1W        W32534  11.211   7.180   2.159  0.0004 -0.1917 -0.2092
    1W        W32535   8.448  27.042   9.433 -0.0048 -0.1314 -0.2118
    1W        W32536   1.998  14.289   0.654  0.1700  0.1846 -0.0978
    1W        W32537   2.510  15.056   7.685  0.1028 -0.2134 -0.0552
    1W        W32538  17.280  17.713   2.570  0.1890  0.0549  0.2305
    1W        W32539  25.830   4.912   9.218  0.1227  0.1811 -0.2140
    1W        W32540  25.095   0.288   8.166 -0.3173 -0.2090  0.0891
    1W        W32541  25.166   0.486   1.894  0.1968 -0.0219  0.0937
    1W        W32542   9.274  24.681   9.511 -0.2271 -0.0362  0.2182
    1W        W32543  24.274  11.434   8.978 -0.3792  0.3027  0.1870
    1W        W32544  12.766  18.569   0.301  0.0143  0.0109  0.3446
    1W        W32545  10.904  22.769   7.841 -0.0453 -0.3002  0.0643
    1W        W32546   3.029  15.277   9.573  0.0350  0.2007  0.4445
    1W        W32547  15.568  23.874   2.626 -0.3244  0.0632 -0.1850
    1W        W32548  24.121  26.296   0.996 -0.0426 -0.1970  0.2075
    1W        W32549   7.804  18.447   6.702  0.0997 -0.1248 -0.1775
    1W        W32550  19.628  17.142   2.798 -0.1204 -0.0287  0.2667
    1W        W32551  12.644   1.869   1.797  0.3037 -0.0486  0.0264
    1W        W32552  26.857  21.114   0.656  0.1895 -0.0358  0.1638
    1W        W32553  25.569  19.130   7.114  0.3271 -0.1135 -0.1452
    1W        W32554  25.849  20.188   1.013  0.0852 -0.2811  0.0391
    1W        W32555   5.414   8.156   1.115  0.0090  0.0810 -0.1484
    1W        W32556  14.641   8.431   0.043 -0.1196  0.0116  0.0984
    1W        W32557  16.459   0.001   8.945 -0.1823  0.1259  0.1735
    1W        W32558  18.816   9.697   8.450  0.1782 -0.0940 -0.1106
    1W        W32559  27.985  21.304   5.582 -0.0252  0.2464  0.4491
    1W        W32560   5.722  11.193   1.435  0.0581  0.1518  0.2356
    1W        W32561  14.534  27.468   1.109  0.2288 -0.0339 -0.2447
    1W        W32562  14.822  25.339   7.061  0.0616 -0.1319 -0.1825
    1W        W32563  28.326  28.380   9.060 -0.0479 -0.1295 -0.1365
    1W        W32564   6.555   5.229   2.487 -0.0511 -0.0487 -0.0282
    1W        W32565  18.105   2.895   0.631  0.0841  0.0329 -0.2252
    1W        W32566  26.101  27.986   6.700 -0.0393 -0.0593  0.3283
    1W        W32567   5.301   1.709   8.178 -0.0694  0.1177  0.1428
    1W        W32568   4.450  12.559   6.790  0.1087 -0.0233 -0.1551
    1W        W32569  21.958  27.926   1.438  0.0797 -0.1259  0.0280
    1W        W32570  22.033  12.664   1.591 -0.1791 -0.0554 -0.2198
    1W        W32571  18.404   6.429   8.875 -0.2084 -0.1595 -0.1895
    1W        W32572  27.078  22.338   2.448 -0.1428 -0.2438 -0.1733
    1W        W32573   5.467   9.710   8.697  0.0704  0.0073  0.1069
    1W        W32574  20.920  24.568   0.417 -0.0167  0.2651  0.0416
    1W        W32575   3.060  10.415   8.703  0.1540 -0.4595 -0.1403
    1W        W32576  23.718  28.016   2.919  0.0774  0.0617 -0.2091
    1W        W32577   3.499  19.763   0.370 -0.1513  0.1757  0.1086
    1W        W32578   0.641   9.102   9.551 -0.1442  0.0019 -0.5707
    1W        W32579  26.868  10.511   7.895  0.1800  0.2957 -0.0995
    1W        W32580  17.087   5.712   1.351  0.1250  0.0877 -0.1805
    1W        W32581  15.778  11.874   9.617  0.0709 -0.1659  0.3477
    1W        W32582  27.899  12.503   7.202  0.1108 -0.2838  0.2631
    1W        W32583  25.152  14.433   8.997  0.3068  0.2835  0.2927
    1W        W32584   2.157  28.294   1.992  0.0852  0.0120  0.1217
    1W        W32585  14.596  27.829   2.554  0.0004  0.0575  0.0052
    1W        W32586  27.109  25.048   2.897  0.1306  0.1649 -0.1641
    1W        W32587  20.965  26.159   8.222 -0.0598  0.1708  0.3018
    1W        W32588  21.924  28.740   0.376  0.1068 -0.3019 -0.2358
    1W        W32589   2.779   8.117   0.316  0.0603 -0.0940 -0.2110
    1W        W32590  13.811  26.946   4.579 -0.0928  0.0035  0.0117
    1W        W32591   2.742   2.594   6.265 -0.0629 -0.0452  0.0316
    1W        W32592  23.374  16.538   7.409  0.2772  0.1123 -0.1757
    1W        W32593   7.812   7.583   7.289 -0.0481  0.0814 -0.1676
    1W        W32594   8.387   6.573   1.643 -0.1789  0.1520 -0.0802
    1W        W32595  16.509  10.720   7.313  0.2574  0.0480 -0.0077
    1W        W32596   4.547  27.635   2.384  0.0141  0.0268  0.1668
    1W        W32597  24.198  23.391   1.923 -0.0290  0.1535  0.0331
    1W        W32598  20.315   4.938   7.392  0.1837 -0.1648  0.1183
    1W        W32599  21.778  29.274   9.433 -0.2113  0.2889 -0.1089
    1W        W32600  24.461  13.059   1.778  0.2084  0.0640  0.0131
    1W        W32601   1.120   3.863   1.574 -0.3544 -0.2936  0.0013
    1W        W32602  25.257  28.634   9.400 -0.1955 -0.1328  0.2396
    1W        W32603  12.235  26.031   0.245  0.0039 -0.0427 -0.0283
    1W        W32604  29.154   2.401   2.566  0.3599  0.0349  0.0567
    1W        W32605   5.481  27.771   8.717  0.2345 -0.0360  0.1151
    1W        W32606   4.177  22.570   0.642 -0.1045 -0.0465  0.3894
    1W        W32607   7.293  24.056   8.271  0.1620 -0.1019 -0.1230
    1W        W32608  15.587   9.074   1.162  0.0959  0.2107 -0.0527
    1W        W32609  20.860  20.625   1.682 -0.0665  0.0132 -0.0690
    1W        W32610   9.835  13.079   8.442 -0.3561  0.0228  0.0072
    1W        W32611  24.834  18.514   9.531 -0.0567 -0.0050 -0.0077
    1W        W32612  21.535   3.840   7.354  0.4184 -0.4105  0.1112
    1W        W32613  18.815   7.502   9.211 -0.1288  0.4436  0.3593
    1W        W32614  15.939  29.003   2.102 -0.0328  0.1248 -0.0531
    1W        W32615  22.057  18.537   9.107 -0.0643  0.2931 -0.3104
    1W        W32616  15.181  27.989   3.026 -0.1242  0.0413 -0.1001
    1W        W32617  16.861   6.290   3.412 -0.1188  0.0110 -0.0277
    1W        W32618  17.492  10.047   0.526 -0.2723 -0.0738  0.0635
    1W        W32619   2.117  28.153   6.920 -0.1890 -0.0865  0.0400
    1W        W32620  26.242   5.690   8.263  0.2811  0.0684  0.1943
    1W        W32621  13.136   3.014   3.420 -0.2095  0.0844 -0.0309
    1W        W32622  21.639  17.436   1.817 -0.0139  0.0506 -0.0047
    1W        W32623   9.238   3.392   7.754  0.3325  0.1660  0.1561
    1W        W32624  24.150  11.595   2.234 -0.2176 -0.1263  0.1639
    1W        W32625  20.226   1.332   7.887  0.2439  0.4677  0.0802
    1W        W32626  13.789  10.425   8.043 -0.0194  0.1209  0.1260
    1W        W32627  14.924  23.478   7.583 -0.0049 -0.0676 -0.0892
    1W        W32628  21.025   3.439   8.013  0.0003 -0.1052  0.1209
    1W        W32629  22.368   9.822   3.128  0.4998  0.1296 -0.0255
    1W        W32630  13.940   0.525   1.201 -0.3015  0.0791  0.0864
    1W        W32631   4.054   0.161   7.749 -0.2487 -0.1190 -0.0330
    1W        W32632   6.674  18.954   1.644 -0.0112 -0.0490 -0.2441
    1W        W32633  10.769   1.156   8.234  0.3139  0.1532  0.0172
    1W        W32634  25.478   4.223   7.326 -0.1492 -0.2141  0.3349
    1W        W32635  24.577   6.515   9.041 -0.2232 -0.1284  0.1443
    1W        W32636   8.837   5.418   8.152  0.0223  0.2116 -0.0317
    1W        W32637  21.810   2.869   8.986  0.1026  0.0342  0.1319
    1W        W32638   1.799  25.309   6.092 -0.0255  0.0899  0.0597
    1W        W32639  19.771   6.266   7.646  0.1278 -0.3049  0.2213
    1W        W32640  22.308  16.898   0.974  0.2887  0.0067 -0.0545
    1W        W32641  24.657   0.643   8.323 -0.3216 -0.0093 -0.2402
    1W        W32642  28.707   8.720   2.334 -0.2460 -0.0844  0.0632
    1W        W32643  13.706   8.672   7.385 -0.0098 -0.1901 -0.0209
    1W        W32644   8.806  22.187   8.183 -0.1428 -0.4029 -0.0054
    1W        W32645  10.378   8.443   8.199  0.2850  0.2215 -0.2021
    1W        W32646  24.913   6.195   0.543  0.0517 -0.0576 -0.0207
    1W        W32647  23.199   6.620   8.702 -0.1335 -0.0965 -0.0420
    1W        W32648  14.354  25.744   2.453  0.1469  0.1061  0.0470
    1W        W32649  23.694   3.980   1.412 -0.3614 -0.1490  0.4116
    1W        W32650   8.053   7.113   0.509 -0.1076  0.2448  0.1493
    1W        W32651  14.445   8.357   0.588  0.1160  0.1752  0.0976
    1W        W32652   5.078   7.476   1.982 -0.1442  0.2282  0.1116
    1W        W32653  22.999  12.987   0.963  0.1947  0.0749  0.0130
    1W        W32654  16.929  19.618   1.483  0.3027  0.0007 -0.1641
    1W        W32655  11.820  15.748   8.823 -0.0617  0.2973 -0.0523
    1W        W32656  24.299  24.410   0.825 -0.2680  0.1281 -0.1456
    1W        W32657   2.812  25.525   0.923 -0.2856  0.2378  0.0683
    1W        W32658  27.456  20.355   8.985  0.3689  0.1216  0.1208
    1W        W32659  18.721  15.295   9.590 -0.3647 -0.2070  0.0385
    1W        W32660   6.686  21.925   9.669 -0.1710 -0.1965 -0.1876
    1W        W32661  24.560  17.549   0.075  0.0093  0.0978 -0.1257
    1W        W32662  17.535  16.825   1.496 -0.0645 -0.1544  0.0865
    1W        W32663  26.185  17.371   6.920 -0.0571 -0.1341  0.0470
    1W        W32664   5.024   6.702   1.174  0.0183 -0.0353  0.0323
    1W        W32665  17.880   7.950   7.891 -0.2221  0.2665 -0.1518
    1W        W32666  16.726  24.917   9.635 -0.5529  0.3962 -0.0172
    1W        W32667   5.968  12.859   1.669 -0.3809 -0.0475  0.0413
    1W        W32668  25.798   1.093   8.524 -0.2841 -0.1815  0.0558
    1W        W32669  18.281  28.412   7.418  0.0688  0.1778  0.1932
    1W        W32670   5.189  18.142   1.393  0.0630 -0.0018 -0.2389
    1W        W32671  18.136   2.363   0.708 -0.0343  0.4365 -0.0579
    1W        W32672  29.331   9.206   5.829  0.1487  0.1431 -0.0194
    1W        W32673  23.684  17.303   0.957  0.2017 -0.1105  0.0955
    1W        W32674  14.095  20.819   1.055 -0.1815 -0.0280  0.0754
    1W        W32675  17.003   6.004   7.291  0.0315  0.0545  0.2087
    1W        W32676  10.491   5.860   7.623 -0.2985  0.0913 -0.1023
    1W        W32677   5.025   7.228   7.808 -0.2344  0.0605 -0.1944
    1W        W32678  13.164   2.497   0.320 -0.0037 -0.0981  0.1238
    1W        W32679   4.339   0.372   2.505  0.0365  0.0216 -0.2928
    1W        W32680   5.765  17.251   8.989  0.0553 -0.0395  0.0524
    1W        W32681  18.223  26.469   1.641 -0.2419  0.3420  0.1415
    1W        W32682  18.946  25.319   0.504 -0.2017 -0.2342 -0.1402
    1W        W32683  15.731  10.239   2.513  0.2426  0.0790 -0.1185
    1W        W32684  26.069  15.721   8.260  0.2735 -0.1477  0.2253
    1W        W32685  11.473   6.322   2.663 -0.0508 -0.0260 -0.1129
    1W        W32686  24.119  11.873   9.406  0.0035 -0.3827 -0.0535
    1W        W32687   2.064   5.713   1.214  0.0700  0.1240 -0.0066
    1W        W32688  19.028  11.017   0.905 -0.1195 -0.1726  0.1806
    1W        W32689  15.351   9.212   9.321  0.0888 -0.2081 -0.3503
    1W        W32690   0.936   2.172   3.324  0.1611  0.0995  0.0525
    1W        W32691  25.452   1.237   6.628  0.0084  0.1605 -0.0558
    1W        W32692  27.600   6.776   0.353  0.1693 -0.0834 -0.1281
    1W        W32693  14.705   8.795   7.710  0.0407 -0.1616 -0.2278
    1W        W32694  25.617  25.086   6.830 -0.0073  0.0297 -0.0480
    1W        W32695  22.676  16.289   9.599 -0.2041  0.0720  0.0414
    1W        W32696  24.972   0.673   7.278 -0.0133  0.0344  0.0154
    1W        W32697  29.303  23.119   9.608  0.0296  0.1506 -0.1224
    1W        W32698  27.875  22.389   9.147 -0.1069 -0.1959  0.3916
    1W        W32699   3.831   0.488   9.360  0.2057  0.1075 -0.3182
    1W        W32700  13.844  23.619   3.204  0.0151 -0.1683 -0.0874
    1W        W32701   1.956   6.390   7.286 -0.2309  0.3011  0.1564
    1W        W32702  12.057   8.500   8.383 -0.0243  0.0708 -0.2360
    1W        W32703   5.969  16.370   1.138  0.1234  0.1347 -0.0737
    1W        W32704  20.346  11.450   8.057 -0.0687 -0.2261  0.0993
    1W        W32705  18.131  16.782   8.810 -0.0024 -0.0167  0.1522
    1W        W32706  15.983  27.490   4.002 -0.2835  0.2520 -0.0668
    1W        W32707  18.708  11.752   0.088  0.0868  0.3988  0.2016
    1W        W32708  13.763  10.318   7.444 -0.0595  0.3696  0.1320
    1W        W32709  21.064  23.933   0.607 -0.1309 -0.0421 -0.2760
    1W        W32710  18.014  23.091   7.348 -0.1034 -0.2297  0.0981
    1W        W32711  27.734   4.259   1.406 -0.1733  0.0159 -0.4026
    1W        W32712  20.399   9.515   9.133 -0.2479  0.1932  0.3660
    1W        W32713  24.358  12.135   6.910  0.0886  0.1440  0.2965
    1W        W32714   5.484   7.170   9.082 -0.1891  0.0393  0.2417
    1W        W32715  23.960  21.213   3.628  0.0731 -0.1290  0.1019
    1W        W32716   0.463   2.571   8.237  0.3979 -0.2535 -0.0614
    1W        W32717  22.920   0.965   7.342  0.1194 -0.0154 -0.0569
    1W        W32718  24.050   2.257   9.082 -0.2804 -0.2274 -0.2203
    1W        W32719  20.022   9.829   1.568 -0.2241 -0.0193  0.0645
    1W        W32720  10.625  21.913   7.882 -0.1737 -0.2578  0.1760
    1W        W32721  16.741   8.460   3.304 -0.1937 -0.1299  0.0855
    1W        W32722  16.651  17.681   0.093 -0.0025 -0.0041 -0.0320
    1W        W32723  28.984  16.144   1.443  0.1306 -0.1633 -0.1259
    1W        W32724   0.573  23.012   7.710  0.0557 -0.1472 -0.1260
    1W        W32725  25.160  14.348   7.029  0.0202 -0.0381  0.0536
    1W        W32726   8.654  24.742   1.168  0.0724  0.1446  0.0166
    1W        W32727  11.952  13.966   7.882  0.1707 -0.0495 -0.0310
    1W        W32728   5.601  18.256   2.433  0.0535  0.1328 -0.2932
    1W        W32729  22.009   8.044   1.208 -0.1732 -0.0685  0.0232
    1W        W32730   0.482   1.379   9.284 -0.0570  0.0092 -0.1659
    1W        W32731   1.194  13.401   7.957 -0.1715  0.1428 -0.0048
    1W        W32732   7.572  27.436   8.132 -0.1630 -0.2123 -0.0604
    1W        W32733   2.309  24.547   8.073  0.2487 -0.0817 -0.2808
    1W        W32734   0.828  14.266   6.554  0.0824 -0.0804  0.1133
    1W        W32735  11.685  26.308   8.433  0.0924  0.2392  0.1125
    1W        W32736  25.671  22.952   7.638  0.4995  0.3268  0.3853
    1W        W32737  14.590  20.756   8.762 -0.2098  0.1446  0.1470
    1W        W32738   1.190  23.323   7.389  0.0953 -0.1043  0.0624
    1W        W32739  22.333   0.895   1.357 -0.1622  0.1157  0.1552
    1W        W32740   7.288  23.473   9.665 -0.0885 -0.0095  0.1496
    1W        W32741  13.479  10.215   8.382  0.2017  0.0979 -0.0449
    1W        W32742  29.362   9.624   8.176 -0.0405  0.0279  0.1583
    1W        W32743   5.549  25.543   2.234  0.1722 -0.1355 -0.1641
    1W        W32744  11.600   6.440   2.200  0.1123  0.4780  0.0398
    1W        W32745   9.395  11.428   3.583 -0.0728 -0.0860 -0.2836
    1W        W32746   8.603  14.598   7.259 -0.0355  0.1884 -0.0063
    1W        W32747  18.644  28.255   7.082  0.0320  0.1636 -0.2322
    1W        W32748  18.784  25.555   7.805 -0.1561 -0.1497  0.1071
    1W        W32749   6.987   5.717   8.623 -0.2938  0.2994  0.3370
    1W        W32750   3.183   6.044   0.605  0.0943  0.3996 -0.1177
    1W        W32751   3.534  21.922   0.295  0.0497  0.0433 -0.2933
    1W        W32752  11.429  23.579   2.407  0.0746  0.0334 -0.1942
    1W        W32753  26.274  23.619   0.765 -0.0857  0.1203  0.0500
    1W        W32754   7.596  13.580   9.327 -0.1040 -0.0113 -0.1943
    1W        W32755  25.156  10.257   6.745  0.2559 -0.0946 -0.0513
    1W        W32756  10.895  16.576   0.253 -0.2869 -0.1252  0.4172
    1W        W32757   0.653  15.912   7.560  0.1271  0.2629 -0.1911
    1W        W32758  16.797   2.538   9.500  0.0273  0.3599  0.0430
    1W        W32759  14.788  18.021   8.875  0.0491  0.2823 -0.4223
    1W        W32760  26.916   1.842   7.512  0.1753 -0.0797  0.2476
    1W        W32761  16.717   2.543   8.036 -0.1586  0.0278  0.0358
    1W        W32762   2.588  19.628   9.652 -0.0010 -0.0164  0.1483
    1W        W32763   5.283  12.453   0.645  0.1597 -0.0692  0.1868
    1W        W32764   2.893   3.093   8.786 -0.0971  0.1916  0.0193
    1W        W32765  24.995   2.044   1.128 -0.1608  0.1513  0.0141
    1W        W32766  12.043  21.961   8.952 -0.0080  0.1289  0.1909
    1W        W32767   1.908   2.753   7.738  0.1606  0.4790  0.0410
    1W        W32768  10.432   2.989   0.957  0.1696  0.0655 -0.2273
    1W        W32769  12.401  20.915   0.428 -0.1633  0.2076  0.1695
    1W        W32770  29.175  22.635   7.850  0.1435  0.1308 -0.1287
    1W        W32771  29.054  20.180   7.350 -0.0589 -0.1870  0.3169
    1W        W32772  14.336  15.562   0.847  0.0142 -0.1903 -0.0302
    1W        W32773  19.332  23.409   7.709 -0.0817  0.1318 -0.0661
    1W        W32774   0.404  19.278   1.033  0.0845  0.0080 -0.0337
    1W        W32775   9.944   1.738   8.098  0.0245 -0.0025 -0.3041
    1W        W32776  22.057   1.743   9.228  0.1070 -0.0853 -0.0236
    1W        W32777  19.619   6.262   1.832 -0.0696 -0.1327 -0.1008
    1W        W32778   5.636  27.268   6.816  0.0054  0.0615  0.0600
    1W        W32779  12.670   8.254   2.858 -0.3896 -0.0517 -0.0728
    1W        W32780   2.251  22.776   1.629  0.0666  0.1360  0.0399
    1W        W32781   0.357   7.009   2.385 -0.0407  0.0442 -0.0778
    1W        W32782  15.074   3.748   4.057 -0.0149 -0.0552  0.2696
    1W        W32783  21.343  23.250   1.626 -0.1215 -0.0689 -0.1730
    1W        W32784  28.238  17.039   1.473  0.1664  0.1784  0.0876
    1W        W32785  15.311   3.816   2.880  0.1721 -0.2855  0.1884
    1W        W32786  21.574  22.026   2.681  0.1901 -0.2520 -0.3071
    1W        W32787   7.261  27.757   8.998 -0.2811  0.0097 -0.0666
    1W        W32788   8.192  21.673   1.191  0.3453  0.1194 -0.3841
    1W        W32789   7.561  22.494   0.794 -0.0182  0.2487 -0.0517
    1W        W32790  29.223   0.995   0.452  0.2547 -0.1428  0.0896
    1W        W32791  10.728  10.246   9.601  0.0664  0.0814 -0.0245
    1W        W32792  26.783  23.119   7.298  0.0102  0.1609  0.1173
    1W        W32793  19.966  13.216   7.249  0.0472  0.0039  0.0254
    1W        W32794  12.308   4.637   2.394 -0.1985 -0.3272  0.0324
    1W        W32795  28.309  10.345   0.071 -0.0648 -0.2626  0.1489
    1W        W32796  24.589   3.185   2.986  0.1224 -0.0979  0.1154
    1W        W32797  12.450   0.481   3.406 -0.0082  0.0556 -0.3732
    1W        W32798  24.591   6.607   5.926 -0.2555 -0.0104 -0.0864
    1W        W32799  14.286   8.153   1.883 -0.2350  0.4756  0.2008
    1W        W32800   9.299   7.636   8.769 -0.0501 -0.2341  0.0026
    1W        W32801   8.201   3.999   7.255  0.1217 -0.0179  0.0516
    1W        W32802  20.832  14.666   8.961  0.1823 -0.4269 -0.1087
    1W        W32803  18.079   5.513   1.238  0.1411 -0.1332 -0.2526
    1W        W32804  16.492  24.563   1.082 -0.0470 -0.1441  0.1424
    1W        W32805   2.494  19.942   7.849 -0.1326 -0.1322 -0.2196
    1W        W32806  20.765   1.194   7.080 -0.1987 -0.0306  0.0358
    1W        W32807  23.132  12.133   6.008 -0.1869 -0.3528  0.0052
    1W        W32808  26.268  24.486   7.399  0.2033  0.1817 -0.0223
    1W        W32809   9.683  16.157   1.818 -0.0399 -0.0410 -0.0472
    1W        W32810  18.488   8.970   1.297  0.0095 -0.1025 -0.0547
    1W        W32811  11.633  29.204   7.837 -0.1826 -0.0050 -0.0299
    1W        W32812  22.358  23.911   1.296  0.1053 -0.1634 -0.1587
    1W        W32813  21.097  10.019   6.976  0.1214  0.1975 -0.1992
    1W        W32814  15.825  28.382   7.668 -0.0049  0.2048  0.2035
    1W        W32815  27.638  13.842   1.096  0.0312 -0.0995  0.0064
    1W        W32816  11.779  10.563   3.147 -0.0073 -0.0478 -0.2848
    1W        W32817  21.526  29.028   6.205  0.0214 -0.1157 -0.1642
    1W        W32818  12.506  26.362   9.611 -0.2354  0.3150  0.2525
    1W        W32819  20.965  11.425   1.558 -0.0612  0.3798  0.1102
    1W        W32820   9.360   4.700   7.962  0.2417 -0.1323 -0.0637
    1W        W32821  13.994  11.130   2.770 -0.3088  0.2809  0.0315
    1W        W32822   3.316   4.595   0.725 -0.1370 -0.0477  0.4002
    1W        W32823  27.568  28.925   2.768  0.0779  0.1683  0.1993
    1W        W32824  13.669  27.665   1.002  0.1268  0.1226  0.2280
    1W        W32825  21.244   0.240   2.451  0.5617 -0.0058  0.2145
    1W        W32826   6.450   9.305   1.967  0.3511  0.1286 -0.1363
    1W        W32827  10.623  18.293   8.190 -0.1821  0.3340 -0.1423
    1W        W32828   5.225   9.163   9.511  0.2504  0.0319  0.0068
    1W        W32829  27.875  25.974   0.359 -0.2333 -0.0562 -0.2541
    1W        W32830   0.943  14.935   0.305  0.1259  0.1028  0.0865
    1W        W32831   6.540   8.859   1.705 -0.1048  0.0508 -0.0644
    1W        W32832  29.246   8.618   1.663 -0.2775  0.1144  0.0074
    1W        W32833   3.813  20.494   6.938 -0.1007  0.1163 -0.0628
    1W        W32834  22.928   2.377   8.358  0.3192  0.0879 -0.0281
    1W        W32835  12.357  10.657   1.490  0.0482  0.0802  0.2281
    1W        W32836  20.290  27.069   2.944 -0.1460 -0.5547  0.1253
    1W        W32837  15.138  24.794   1.038  0.2116 -0.0403 -0.0862
    1W        W32838  13.113   5.189   9.567 -0.0264 -0.0039 -0.1744
    1W        W32839   9.949  21.123   7.809 -0.0543  0.2212 -0.0034
    1W        W32840   2.111  21.039   1.146  0.0621  0.0311  0.1659
    1W        W32841   5.131   7.026   8.286 -0.0542  0.0198 -0.4067
    1W        W32842   6.427  22.693   6.778 -0.1129  0.3246  0.2054
    1W        W32843  20.877  26.226   2.772 -0.2212 -0.3337 -0.1065
    1W        W32844  19.402   2.063   2.683  0.2592 -0.0130  0.3393
    1W        W32845  18.421  23.735   7.460  0.0210  0.1387 -0.1981
    1W        W32846  19.277  14.757   0.188 -0.1703 -0.2566  0.0994
    1W        W32847   4.434   4.845   1.003  0.1592  0.1450  0.2721
    1W        W32848  21.583   4.060   9.658 -0.1248  0.2807  0.0397
    1W        W32849   0.837  19.558   1.122 -0.0120 -0.2472  0.4313
    1W        W32850  23.915   2.616   5.658  0.0983  0.0300  0.0606
    1W        W32851  19.724  18.746   2.405 -0.1198  0.0803  0.3308
    1W        W32852  19.220  14.368   7.485  0.0771 -0.1149 -0.0112
    1W        W32853  28.935   6.557   6.092 -0.1808 -0.4064 -0.1225
    1W        W32854   0.885   2.449   8.573  0.1713  0.0001  0.1404
    1W        W32855  17.570   3.454   8.482  0.0761 -0.1757 -0.1890
    1W        W32856  21.331   4.323   9.356  0.0060 -0.2614 -0.0853
    1W        W32857  10.765  23.065   5.823  0.0986 -0.2466 -0.3047
    1W        W32858  22.914  11.743   0.790 -0.0967  0.1266  0.1485
    1W        W32859  28.119  22.342   9.651  0.0625 -0.0239  0.0766
    1W        W32860  15.645  23.684   6.924 -0.2321 -0.0424  0.1836
    1W        W32861   8.775  26.496   7.824 -0.0958 -0.0074 -0.0847
    1W        W32862  28.344  26.354   6.572 -0.0571  0.0918  0.0808
    1W        W32863  20.321  19.234   2.068 -0.0630  0.2467 -0.1001
    1W        W32864  28.253   2.424   9.418 -0.1479 -0.0799  0.0307
    1W        W32865   8.896  27.674   8.136  0.2863  0.0949 -0.0347
    1W        W32866  24.268   2.438   1.646  0.0978 -0.0983 -0.1350
    1W        W32867  25.600   6.470   7.344 -0.0487 -0.0342 -0.3219
    1W        W32868  16.637   6.143   9.498  0.0490  0.1274  0.3847
    1W        W32869  11.911  10.584   1.958  0.1556 -0.2297  0.4117
    1W        W32870   3.000  18.375   0.745 -0.0114 -0.0492  0.0236
    1W        W32871  24.538   5.081   8.931 -0.0889  0.3314 -0.0366
    1W        W32872  25.782   5.806   1.641  0.0739  0.0169  0.2635
    1W        W32873  27.733  19.366   6.884  0.1179 -0.1529 -0.0349
    1W        W32874  19.031   5.721   0.643  0.0703 -0.1702  0.1245
    1W        W32875  14.108   1.984   1.716  0.1048  0.0275 -0.0143
    1W        W32876  27.424   0.951   7.863 -0.2928 -0.1993  0.0941
    1W        W32877   8.068  17.020   1.086 -0.4671 -0.0613 -0.1325
    1W        W32878  15.017  20.520   8.568  0.2190  0.0797  0.0612
    1W        W32879  13.548   4.414   0.983  0.1831  0.3271  0.0971
    1W        W32880   1.151  11.492   5.916 -0.0476  0.0211  0.2774
    1W        W32881  26.301  11.602   0.343 -0.2690 -0.0460  0.1481
    1W        W32882   0.666   1.819   8.132 -0.0878 -0.0833 -0.0101
    1W        W32883   7.013   2.162   0.752 -0.1659  0.3448 -0.0235
    1W        W32884   0.492  21.489   2.194  0.1239  0.1880 -0.0704
    1W        W32885   9.809  16.640   7.720 -0.4594 -0.0813 -0.1030
    1W        W32886  22.405   2.607   9.222 -0.1584  0.1577  0.4678
    1W        W32887  21.042   7.678   8.074 -0.0989  0.1597 -0.3092
    1W        W32888   6.443  27.359   3.380 -0.2414  0.0874  0.0180
    1W        W32889  21.438  12.149   9.457  0.0132  0.0831 -0.0635
    1W        W32890  17.788  19.275   0.938  0.0114  0.1229 -0.1317
    1W        W32891  21.291  27.133   7.595  0.1475  0.3762  0.1826
    1W        W32892  13.198  27.985   4.519 -0.0218  0.0204  0.0885
    1W        W32893  24.578  11.855   1.056  0.0550 -0.0633  0.2495
    1W        W32894  28.085  25.729   8.335  0.0771 -0.1541 -0.2698
    1W        W32895  24.860  26.073   7.575  0.1187  0.1061 -0.0616
    1W        W32896   4.355  16.257   1.072 -0.1911 -0.3011  0.0483
    1W        W32897  25.487   3.619   1.260 -0.1164  0.1969 -0.0741
    1W        W32898  27.691  25.309   8.926  0.0171 -0.2349 -0.1887
    1W        W32899   8.734  27.548   8.660 -0.4320  0.2640  0.0116
    1W        W32900  11.545  22.984   6.666 -0.2009 -0.0804 -0.0818
    1W        W32901   7.066  16.192   2.694  0.1789 -0.3579  0.0239
    1W        W32902  13.310  21.892   1.533  0.0959 -0.1550 -0.0818
    1W        W32903  12.578  11.691   8.076  0.0913 -0.1350  0.1360
    1W        W32904  26.078   3.519   8.001 -0.3168  0.0710  0.2383
    1W        W32905  28.067  11.337   1.528  0.0928  0.1115 -0.0321
    1W        W32906   9.938   5.350   9.002 -0.3214 -0.1616  0.1280
    1W        W32907  23.276   4.925   0.617 -0.1131  0.0803 -0.1633
    1W        W32908   6.776  27.081   8.687  0.1033 -0.0066  0.2043
    1W        W32909  12.669  29.128   2.140  0.0910  0.1178  0.0752
    1W        W32910  22.382  14.804   6.929 -0.2724  0.1188  0.0104
    1W        W32911  11.635  12.553   9.638  0.0571 -0.0869  0.1020
    1W        W32912  25.075  21.753   0.655 -0.0393 -0.0561  0.3062
    1W        W32913  28.399  25.301   7.076  0.0188 -0.2132  0.1016
    1W        W32914  14.154   5.091   1.211 -0.4215  0.2200 -0.0089
    1W        W32915  18.549  27.042   7.439  0.1580 -0.3191 -0.0009
    1W        W32916   8.629   5.942   2.097  0.0871 -0.0282  0.0383
    1W        W32917  13.590  28.941   4.706  0.0805  0.0840  0.0253
    1W        W32918   4.969   6.618   1.697 -0.0280 -0.0453  0.1176
    1W        W32919  21.884  10.950   7.362 -0.3644  0.3425 -0.1123
    1W        W32920  25.713  25.525   2.027  0.0007  0.2352  0.2709
    1W        W32921   9.429   7.739   0.373 -0.1837  0.2572  0.3146
    1W        W32922   9.312   1.932   6.953  0.1180 -0.2302 -0.2871
    1W        W32923  18.093   1.225   8.055  0.1826  0.3171  0.3820
    1W        W32924  15.794  25.437   1.169 -0.1972  0.3294  0.0649
    1W        W32925  26.783   6.450   7.111  0.2365 -0.3971  0.2954
    1W        W32926   5.931  21.136   6.170 -0.0362  0.2012 -0.4172
    1W        W32927  13.867   2.866   1.899  0.0409 -0.2291  0.1373
    1W        W32928   4.051  21.100   8.066  0.2550  0.0266  0.2301
    1W        W32929  27.729  24.877   2.295 -0.2383 -0.1266 -0.0178
    1W        W32930  23.581  21.911   9.138 -0.1637 -0.0951  0.1851
    1W        W32931   2.173  25.236   2.115 -0.2397 -0.0349 -0.2271
    1W        W32932   7.436  24.680   9.425 -0.1574 -0.2361 -0.0529
    1W        W32933  19.588  11.068   8.355 -0.2763 -0.0947  0.3371
    1W        W32934   3.310   2.866   0.440 -0.4819 -0.1696  0.1561
    1W        W32935   6.747  10.804   8.610 -0.2216 -0.0599 -0.1129
    1W        W32936  14.146  20.052   2.269  0.3797  0.1033  0.0368
    1W        W32937   5.036  13.340   8.735 -0.0933  0.1464  0.0326
    1W        W32938  10.029   7.105   1.742 -0.0143 -0.0753 -0.1401
    1W        W32939   0.107  16.308   6.174  0.2170  0.2158 -0.3417
    1W        W32940  19.709  13.625   9.046 -0.4169 -0.1893 -0.1413
    1W        W32941   3.077  20.834   6.939 -0.1634  0.3508 -0.1492
    1W        W32942  29.236  26.296   1.377  0.1233 -0.1886 -0.2218
    1W        W32943  10.695  23.464   0.954  0.0416  0.3091  0.0143
    1W        W32944   4.466  13.494   0.119 -0.0358  0.2655  0.1671
    1W        W32945  20.962   7.561   2.590  0.1048 -0.1083 -0.1050
    1W        W32946   7.105  17.138   6.061 -0.2118  0.1708 -0.1548
    1W        W32947  21.772  14.296   1.126  0.2730  0.1888  0.2299
    1W        W32948  21.529   3.101   7.662 -0.1982 -0.0219  0.2054
    1W        W32949   9.732   7.908   7.133 -0.1239 -0.3417  0.0569
    1W        W32950  17.351   5.627   8.576 -0.0163 -0.2807  0.2382
    1W        W32951  14.470  11.229   1.732  0.1657 -0.1971  0.1433
    1W        W32952   9.171  20.085   1.093 -0.0848 -0.3464 -0.0119
    1W        W32953   2.729  13.274   8.869 -0.2567 -0.1480 -0.2535
    1W        W32954   3.667  10.359   6.509 -0.0519 -0.2466  0.0131
    1W        W32955  18.299  11.567   0.236  0.0965 -0.0026 -0.1048
    1W        W32956   7.497   7.773   6.883 -0.1536  0.0800  0.3539
    1W        W32957  15.470   5.005   8.974 -0.2618 -0.0012 -0.3420
    1W        W32958  17.899  19.079   9.640  0.1925 -0.2108 -0.0268
    1W        W32959  13.052   8.556   2.288 -0.0164 -0.1133 -0.0319
    1W        W32960   3.326  26.217   0.880 -0.0771  0.0666  0.0992
    1W        W32961   8.154   3.731   2.253 -0.1261  0.2154  0.0526
    1W        W32962   2.743  18.692   6.950 -0.0611 -0.3398 -0.0242
    1W        W32963  11.285   9.485   7.902  0.0297 -0.0320 -0.1790
    1W        W32964  22.979  23.376   6.909  0.1008 -0.2270 -0.1747
    1W        W32965   9.509  27.639   1.915  0.1886  0.0179  0.1586
    1W        W32966  14.606  26.064   9.003  0.0847  0.0563 -0.2934
    1W        W32967   9.384  13.093   8.647 -0.0143 -0.1241 -0.0125
    1W        W32968  28.753   6.094   1.701 -0.4020 -0.1253  0.1626
    1W        W32969  20.288  24.275   6.495 -0.1959  0.1164  0.1768
    1W        W32970   5.473   3.171   7.651 -0.1709 -0.0793 -0.2239
    1W        W32971  23.986  24.235   6.469 -0.2941 -0.1911  0.0434
    1W        W32972  18.924   5.147   7.861  0.0271 -0.1051  0.0386
    1W        W32973   1.552  21.947   2.542 -0.3152 -0.3294  0.2506
    1W        W32974   3.598  27.995   9.416 -0.2637 -0.0838 -0.1140
    1W        W32975  27.965   0.834   0.696  0.3015  0.1469  0.1444
    1W        W32976  26.069   1.280   2.137 -0.0930 -0.3375  0.4393
    1W        W32977  12.420  16.173   7.691 -0.2647  0.3071 -0.0953
    1W        W32978  17.686   2.327   9.354 -0.3297  0.0719  0.2767
    1W        W32979  10.010  24.936   9.558  0.0454 -0.0824  0.3691
    1W        W32980   6.820  14.432   2.925  0.1551 -0.3475  0.1840
    1W        W32981   4.688  18.027   2.582  0.3834 -0.0698 -0.0778
    1W        W32982  21.976  18.283   2.323  0.1594 -0.1394 -0.0549
    1W        W32983  29.067   1.983   7.477 -0.0896  0.0311  0.3891
    1W        W32984  23.046  22.902   0.876  0.1054 -0.0003  0.1955
    1W        W32985  18.837   3.342   8.998 -0.2618  0.0198  0.0010
    1W        W32986  12.921  17.988   7.327 -0.0526 -0.0730 -0.2110
    1W        W32987   0.050  28.533   2.982 -0.1320 -0.1523 -0.3566
    1W        W32988  23.333  26.642   2.014  0.2304 -0.2341 -0.1024
    1W        W32989  28.604  23.320   6.938 -0.0483 -0.6349 -0.3268
    1W        W32990   6.809  26.459   7.433  0.0663  0.2405  0.0792
    1W        W32991  16.287  20.190   9.372  0.2273 -0.0708  0.1435
    1W        W32992  23.798  10.783   7.851 -0.2597 -0.0023 -0.3674
    1W        W32993  20.270  13.502   9.640 -0.0018 -0.0562  0.1056
    1W        W32994   4.973  22.562   1.733  0.0689 -0.0845  0.0858
    1W        W32995  14.173  19.437   8.779  0.2941  0.1279 -0.0313
    1W        W32996  13.025   5.971   2.685 -0.3803  0.2094  0.1847
    1W        W32997  26.257  10.668   1.093 -0.2172 -0.0091  0.2244
    1W        W32998   0.589  25.672   8.464 -0.0956 -0.0637  0.1587
    1W        W32999  28.009  10.877   6.244 -0.2108 -0.3443  0.1522
    1W        W33000  22.552  28.079   9.241 -0.0789 -0.3321 -0.0342
    1W        W33001   5.519  20.769   7.085  0.2310 -0.0152  0.0336
    1W        W33002  27.699  11.495   2.325  0.0121  0.1885 -0.0196
    1W        W33003  27.209  10.214   0.427  0.3314  0.2371  0.1034
    1W        W33004  15.212  27.623   7.417  0.1162  0.1338 -0.3297
    1W        W33005  15.883   8.832   0.750  0.1322 -0.0730  0.0272
    1W        W33006  12.706  10.480   0.997  0.0762 -0.2331  0.1837
    1W        W33007   7.861   6.809   8.423  0.2282  0.0506 -0.1865
    1W        W33008   5.001   6.168   1.386  0.1550  0.0857  0.1557
    1W        W33009   7.342   5.818   2.554  0.4523 -0.2840  0.1649
    1W        W33010  12.201  16.294   8.297  0.1585 -0.1126  0.0545
    1W        W33011   6.768  28.362   1.824  0.0839 -0.1987 -0.0130
    1W        W33012  10.687  26.304   2.046 -0.1474  0.0746  0.2161
    1W        W33013   8.715  21.730   0.807  0.2373 -0.1205  0.0877
    1W        W33014   6.099  25.706   1.385 -0.0050 -0.2867  0.1630
    1W        W33015   5.087  20.464   1.369 -0.0134 -0.0437  0.2053
    1W        W33016  29.005   8.462   7.348 -0.2130 -0.1676 -0.2368
    1W        W33017   7.203   0.368   8.995 -0.1691 -0.1415 -0.3667
    1W        W33018  22.376  20.035   7.989  0.0437  0.2331  0.0979
    1W        W33019   7.004  15.026   6.619  0.2724  0.0728  0.3242
    1W        W33020  18.092  12.207   9.145 -0.0913 -0.0432  0.2744
    1W        W33021  26.537   0.196   0.598 -0.0492  0.3683 -0.5093
    1W        W33022   4.088   3.294   2.442  0.1528  0.0325 -0.3135
    1W        W33023   2.837   4.790   7.165 -0.1570 -0.1627 -0.4531
    1W        W33024  14.852  23.557   1.068 -0.1758  0.0558  0.0080
    1W        W33025  23.702   7.371   0.420  0.2025  0.1797 -0.2453
    1W        W33026   5.313  27.104   7.945 -0.1541 -0.2360 -0.0925
    1W        W33027  19.983   4.603   7.685  0.0527 -0.1344  0.0173
    1W        W33028   5.648   7.553   2.744 -0.1492  0.3458  0.2751
    1W        W33029  24.987   0.276   1.502 -0.1633  0.1793 -0.0088
    1W        W33030  13.270   0.820   0.005 -0.0467  0.0870  0.3043
    1W        W33031  17.066  26.824   0.177  0.0550 -0.1302  0.1949
    1W        W33032  28.401  15.747   9.587  0.0295  0.2568  0.1351
    1W        W33033  15.150   0.961   7.347 -0.2767 -0.1331 -0.2416
    1W        W33034   7.813   9.394   0.353  0.1102 -0.0007 -0.3623
    1W        W33035   9.362  23.613   1.450 -0.3285  0.0296  0.0815
    1W        W33036   0.943  21.432   9.647 -0.0367 -0.4136 -0.0595
    1W        W33037  23.031  27.676   6.733 -0.1902  0.0630 -0.1417
    1W        W33038   6.733   2.073   0.343  0.5188  0.2112  0.1307
    1W        W33039   2.730  12.127   2.125  0.0524  0.1081  0.0070
    1W        W33040   0.565  13.278   2.556 -0.0394  0.1076 -0.0949
    1W        W33041  23.949  19.172   2.794 -0.0954  0.2381  0.3796
    1W        W33042  10.536  26.530   1.542  0.1220 -0.0504  0.1666
    1W        W33043   4.526  15.787   6.980 -0.0992 -0.0466 -0.0316
    1W        W33044   2.002   0.144   0.317 -0.3093 -0.0934 -0.4363
    1W        W33045  26.354  24.214   1.725 -0.1460 -0.0432 -0.3043
    1W        W33046  11.462  14.920   9.020 -0.1463  0.0652 -0.0342
    1W        W33047   6.080  19.603   7.231 -0.1869  0.2329 -0.1930
    1W        W33048   1.046  14.200   0.760  0.1071 -0.0733  0.1931
    1W        W33049  20.406  28.782   6.617 -0.4623 -0.1080 -0.0183
    1W        W33050   3.190   7.454   1.819 -0.0968  0.0107  0.4115
    1W        W33051  17.672   3.331   0.095  0.0296 -0.3067  0.0228
    1W        W33052  16.570  29.297   8.375  0.0511 -0.0570  0.2019
    1W        W33053   2.267   0.532   0.473 -0.1664  0.2673  0.1458
    1W        W33054  13.932  29.131   7.889 -0.0112 -0.2645 -0.2293
    1W        W33055   3.543   0.913   2.263 -0.1242 -0.2818 -0.1110
    1W        W33056   8.631  27.676   7.123 -0.0513  0.1474  0.2843
    1W        W33057   5.946   7.155   6.173  0.0426 -0.0394  0.0201
    1W        W33058  13.390  22.566   2.617 -0.0310  0.1124 -0.3192
    1W        W33059   5.218  24.269   9.638 -0.2883  0.0241 -0.0349
    1W        W33060  25.941  21.873   8.283 -0.0890  0.0247  0.1901
    1W        W33061  15.733  22.527   7.042  0.1260  0.2826  0.1377
    1W        W33062  22.179  12.764   7.908  0.0345 -0.3682 -0.0066
    1W        W33063   9.534  18.552   7.539  0.3930  0.2757 -0.1790
    1W        W33064   0.764   4.342   8.522 -0.1948 -0.0071  0.0491
    1W        W33065  19.583   6.287   9.062  0.2057  0.1827 -0.1067
    1W        W33066  21.904  10.189   0.754 -0.2516  0.0704  0.0860
    1W        W33067   0.740   6.871   9.451 -0.0762 -0.0368 -0.1590
    1W        W33068  20.586  20.026   2.365  0.0305  0.1379  0.1137
    1W        W33069  12.321  24.270   7.826 -0.1209  0.1407 -0.5731
    1W        W33070  27.220  17.697   2.853  0.2250  0.1239  0.4418
    1W        W33071  15.030  19.792   2.469  0.4251 -0.0713  0.0364
    1W        W33072  17.286   9.858   2.002  0.0729 -0.0733 -0.1525
    1W        W33073   2.716  17.024   8.310  0.1524  0.1241  0.0998
    1W        W33074  21.304   1.019   6.806 -0.1596  0.2331 -0.0510
    1W        W33075   4.780  10.819   1.970  0.1343 -0.1652 -0.1080
    1W        W33076  14.141   2.499   1.443  0.1580 -0.1295  0.0309
    1W        W33077   6.276   7.578   6.314 -0.0489  0.2386 -0.0361
    1W        W33078   2.432  24.736   0.184 -0.0884 -0.1174  0.2903
    1W        W33079  24.323   0.348   7.385 -0.2138 -0.4375  0.0222
    1W        W33080   0.477   1.759   0.440 -0.1365 -0.0188 -0.2969
    1W        W33081   9.174   8.593   8.838 -0.0703  0.0423  0.0221
    1W        W33082  25.343   1.478   1.489  0.0864 -0.0545 -0.2262
    1W        W33083   4.964  28.574   0.331 -0.1075 -0.0077  0.0220
    1W        W33084  15.620   5.323   1.916 -0.1848 -0.1517  0.0323
    1W        W33085   6.761   0.639   8.981 -0.0556  0.1515 -0.0125
    1W        W33086  19.909  23.111   1.838  0.0030 -0.1353 -0.2905
    1W        W33087  22.424   1.534   8.803  0.3144  0.1030 -0.5253
    1W        W33088   3.216  15.567   8.646 -0.0382  0.3433 -0.0564
    1W        W33089   2.855   5.812   9.050  0.2729  0.0954 -0.2203
    1W        W33090  11.255  16.573   7.206 -0.1458  0.0144  0.0107
    1W        W33091  17.729  21.204   8.759 -0.1099  0.2846 -0.0380
    1W        W33092   9.107  18.747   7.798 -0.3085 -0.1684  0.1309
    1W        W33093   5.702  21.513   6.423 -0.0343 -0.0743  0.0925
    1W        W33094  27.906  17.395   6.978 -0.0439 -0.2605  0.0693
    1W        W33095  22.896  14.739   7.606 -0.0145  0.2095  0.2229
    1W        W33096   3.367  17.076   6.274  0.1284  0.0213  0.1160
    1W        W33097   4.826  10.756   7.531  0.2542 -0.0791 -0.2476
    1W        W33098   0.142   9.133   0.072 -0.3256  0.0729  0.1465
    1W        W33099   7.832   2.432   2.534 -0.1957 -0.0980  0.0680
    1W        W33100   3.813  19.115   8.238 -0.1943 -0.0016 -0.2057
    1W        W33101  28.797  25.172   0.802  0.2192  0.3273 -0.0107
    1W        W33102   4.946  23.034   7.556 -0.0033  0.2407  0.0678
    1W        W33103   8.545   8.995   8.675  0.3168 -0.3080 -0.0188
    1W        W33104  25.695  16.156   0.274  0.0597 -0.2375  0.0035
    1W        W33105   9.993  10.583   8.901 -0.0604  0.2461 -0.1517
    1W        W33106  20.852  12.992   0.938 -0.4181 -0.0293  0.0157
    1W        W33107  27.633  23.312   0.977  0.0108  0.0243  0.1222
    1W        W33108  26.474  13.974   6.851  0.1287 -0.0652  0.1479
    1W        W33109  21.342  17.654   1.244  0.1099  0.1290 -0.1432
    1W        W33110  14.724  11.574   2.041 -0.3519 -0.0983 -0.0906
    1W        W33111   7.457   2.136   2.558  0.1846  0.4294 -0.2422
    1W        W33112  16.146   8.473   2.350  0.2312 -0.1001 -0.0817
    1W        W33113  26.362  22.862   2.904  0.1469  0.2346 -0.0074
    1W        W33114  22.745  11.497   2.033 -0.2848 -0.2121  0.0345
    1W        W33115  18.181   6.331   1.587  0.2297  0.0151 -0.0191
    1W        W33116  15.487  21.576   8.786 -0.2900  0.1503  0.1132
    1W        W33117  25.549  18.528   0.598 -0.2598  0.1160  0.0110
    1W        W33118  26.005   0.999   6.644 -0.1366  0.1736 -0.0126
    1W        W33119  25.536  22.343   3.282  0.2649 -0.2442 -0.0398
    1W        W33120  18.447  21.180   7.309  0.1133 -0.1628  0.3132
    1W        W33121  18.773  21.602   0.098 -0.2163  0.1303 -0.1763
    1W        W33122   2.127  10.323   1.377 -0.3378  0.3461 -0.0615
    1W        W33123  20.473   5.935   9.518 -0.2099 -0.1481 -0.0931
    1W        W33124  25.511   7.879   1.986 -0.1572 -0.2647  0.1565
    1W        W33125  15.591  19.797   8.740 -0.2009 -0.2469 -0.2228
    1W        W33126  15.299   9.509   1.048  0.3398  0.2128  0.0357
    1W        W33127  15.982  29.033   9.616 -0.2379 -0.0342 -0.0021
    1W        W33128   7.000   0.544   1.825  0.1379  0.1543 -0.0730
    1W        W33129  25.429  11.958   7.908 -0.3679 -0.1336 -0.0142
    1W        W33130   1.749   5.185   1.578  0.1725  0.1336 -0.2581
    1W        W33131  13.704   8.385   1.017 -0.2328 -0.1207  0.1007
    1W        W33132   1.103  10.946   9.490 -0.0298 -0.1529  0.3564
    1W        W33133  27.435  11.015   0.121  0.1962  0.2169  0.0176
    1W        W33134  28.875  25.454   7.898  0.0526 -0.0033  0.2052
    1W        W33135  20.700  20.630   8.142 -0.0411  0.0747 -0.1156
    1W        W33136  18.519   2.420   8.967 -0.1393  0.1943 -0.0559
    1W        W33137   0.453  29.157   2.155 -0.1998 -0.2957 -0.3360
    1W        W33138  22.811  21.514   8.512 -0.0634  0.0290 -0.1217
    1W        W33139   0.335  26.719   9.235 -0.2538  0.0522 -0.1659
    1W        W33140  10.933  26.212   8.074 -0.1167 -0.3373  0.0042
    1W        W33141   6.625  13.788   2.420  0.0086  0.0033 -0.1427
    1W        W33142   9.691  26.226   8.623  0.1249  0.1502 -0.1185
    1W        W33143  22.407  14.243   8.577 -0.0905 -0.0382  0.2334
    1W        W33144  10.258  10.637   8.466  0.3312 -0.0396  0.0548
    1W        W33145   0.511  15.999   6.982  0.1437  0.0349  0.0408
    1W        W33146   9.409  19.176   7.936  0.0786  0.1153 -0.0665
    1W        W33147  22.414   5.269   1.595 -0.0433  0.2037  0.1067
    1W        W33148   7.034   5.678   8.021 -0.1313  0.2448  0.0202
    1W        W33149   6.467   4.246   2.407 -0.2846 -0.3834  0.2656
    1W        W33150   7.716  22.641   8.168  0.0868  0.1887  0.0229
    1W        W33151   4.603   0.865   0.195  0.1835  0.1278  0.0231
    1W        W33152  14.576  12.313   1.630  0.1244  0.0840 -0.0241
    1W        W33153  13.506  11.235   0.162 -0.1935  0.0028 -0.3397
    1W        W33154  23.235  18.419   1.579  0.0275 -0.0184  0.3848
    1W        W33155  25.556  20.486   0.255  0.1482  0.0266 -0.0885
    1W        W33156  25.390  10.550   8.264  0.4035  0.0743  0.0635
    1W        W33157  25.863  28.731   6.926 -0.0484  0.0257  0.1537
    1W        W33158  28.676  19.421   8.305  0.0530  0.2439  0.1170
    1W        W33159  17.736  13.776   3.175 -0.1045  0.0537  0.1108
    1W        W33160   2.897  20.321   7.503  0.1561  0.2828 -0.2004
    1W        W33161  24.324   4.952   9.532  0.0344  0.1022  0.0500
    1W        W33162  11.364  18.178   7.625  0.0375  0.2113  0.1124
    1W        W33163  24.994   0.059   1.074 -0.0259 -0.0060 -0.2313
    1W        W33164  27.528   1.356   8.213  0.0028  0.0448  0.1215
    1W        W33165   0.724  15.558   9.466  0.0994  0.1453  0.1075
    1W        W33166   5.707   6.546   6.876  0.2706 -0.1216 -0.1126
    1W        W33167   2.996  13.465   2.383  0.2260 -0.1287  0.1501
    1W        W33168   1.229  13.925   7.600 -0.2496  0.2060 -0.0574
    1W        W33169   1.390   5.506   8.308 -0.2898  0.1184  0.1523
    1W        W33170  21.376   5.984   8.210 -0.1027 -0.0289 -0.2135
    1W        W33171  16.196   3.352   3.115 -0.1793 -0.0422 -0.2557
    1W        W33172   2.316  17.552   2.008 -0.0182  0.4490 -0.0059
    1W        W33173  10.333  24.152   5.915  0.1373  0.0948 -0.2605
    1W        W33174  26.181  26.680   6.337 -0.2052  0.0417 -0.3978
    1W        W33175  27.555  25.334   9.464  0.1392  0.0237  0.0630
    1W        W33176   6.028   2.891   8.411 -0.1218 -0.0761 -0.2947
    1W        W33177  25.339  28.063   7.382 -0.0202  0.3619  0.2384
    1W        W33178  17.075  27.861   2.519 -0.0127  0.0971 -0.3446
    1W        W33179  17.235  15.722   6.884 -0.0439 -0.1797 -0.1880
    1W        W33180   1.578  26.089   1.555 -0.0707  0.1504 -0.2885
    1W        W33181  26.853   3.960   8.430 -0.1257 -0.1670 -0.1487
    1W        W33182   3.978   8.707   9.120  0.0747 -0.0297 -0.3943
    1W        W33183  15.275  16.678   7.129  0.0125  0.2722  0.1342
    1W        W33184  10.712  14.223   0.420 -0.0610 -0.1240 -0.2690
    1W        W33185  20.599  11.921   6.562 -0.0468 -0.0357 -0.2339
    1W        W33186   6.296  19.870   7.877  0.1710  0.1029  0.0450
    1W        W33187   0.352   7.055   1.228  0.1914  0.2499 -0.4034
    1W        W33188   8.250   6.857   7.039  0.6846  0.1226  0.2127
    1W        W33189  25.817  18.590   8.106  0.0411  0.0851  0.2794
    1W        W33190   4.801   5.683   2.070 -0.1167 -0.2728  0.1277
    1W        W33191  24.369  15.459   7.456  0.2305  0.0663 -0.5419
    1W        W33192  26.097  23.959   1.195 -0.2105  0.1791  0.1605
    1W        W33193   8.966   2.913   1.953  0.0004 -0.0176  0.1419
    1W        W33194  23.080  21.991   1.856 -0.1747  0.3378  0.3862
    1W        W33195   7.651  27.073   2.381 -0.0841 -0.4961 -0.5817
    1W        W33196  19.427   5.261   8.151 -0.1408  0.1104  0.0749
    1W        W33197  27.245  12.629   0.103  0.0847 -0.2309  0.0166
    1W        W33198  11.537  17.411   1.058  0.1448  0.2292  0.1283
    1W        W33199  25.161  29.071   1.564  0.1274  0.1815 -0.0258
    1W        W33200  24.985   2.006   2.167  0.1657  0.2265 -0.0439
    1W        W33201  10.365  13.880   0.311  0.2270 -0.1289  0.1034
    1W        W33202  21.615  25.358   9.646 -0.2264 -0.0534  0.0156
    1W        W33203  26.546  21.481   1.461 -0.1279 -0.0952  0.0793
    1W        W33204   6.948  17.496   7.605  0.2482  0.2179  0.0907
    1W        W33205  25.705   4.488   0.590 -0.0622  0.1279  0.1008
    1W        W33206   6.572  18.679   7.402  0.0561 -0.0791 -0.0016
    1W        W33207  24.938   9.729   7.946 -0.0714 -0.2524  0.0844
    1W        W33208  18.756  14.239   6.886 -0.1743  0.0518 -0.0767
    1W        W33209  13.583  23.614   7.491 -0.2875  0.1664  0.3452
    1W        W33210   7.750   9.090   7.017 -0.0386 -0.0187  0.0219
    1W        W33211   5.750   6.908   3.562  0.2532  0.0289 -0.1614
    1W        W33212   3.682  13.211   9.335 -0.4194 -0.0313 -0.0394
    1W        W33213  15.057   1.865   2.665 -0.3087 -0.0107  0.3083
    1W        W33214  23.769   7.078   6.725  0.1198 -0.0819 -0.1498
    1W        W33215   2.435  23.216   0.340 -0.2616  0.0915  0.3012
    1W        W33216   7.657  28.448   2.393 -0.1114 -0.4367 -0.1938
    1W        W33217   1.121   8.094   0.668 -0.1012 -0.0349 -0.0105
    1W        W33218   1.672  21.724   7.312 -0.0639  0.1757 -0.0269
    1W        W33219   9.934   4.204   2.889 -0.1826 -0.1615 -0.0194
    1W        W33220  27.525   3.060   8.769 -0.1468 -0.0373 -0.1288
    1W        W33221   6.434   3.493   7.690  0.1291 -0.1323 -0.1929
    1W        W33222  25.207  22.549   1.078  0.2256  0.0080 -0.4541
    1W        W33223   4.866  15.679   0.492  0.0594  0.1038  0.1365
    1W        W33224  24.311  25.767   9.392  0.0848 -0.1396 -0.2925
    1W        W33225   3.874  11.393   0.448 -0.0754  0.0424 -0.2321
    1W        W33226   5.483   0.966   1.696 -0.0135 -0.2976 -0.0646
    1W        W33227  23.661  16.562   9.499  0.1383  0.0041 -0.0363
    1W        W33228  21.351  10.934   7.303  0.0607 -0.0174 -0.0808
    1W        W33229  23.945   6.045   9.129  0.2424  0.1336  0.2752
    1W        W33230  29.106  10.318   9.478  0.0211 -0.3195  0.0982
    1W        W33231  28.676   3.194   3.147  0.0183  0.0224 -0.2469
    1W        W33232  19.608   7.481   8.407  0.2337 -0.0213 -0.1087
    1W        W33233  26.511  23.198   9.579 -0.0689  0.1096 -0.1122
    1W        W33234  23.233  11.294   7.347  0.1481  0.3117  0.0034
    1W        W33235  23.300   5.063   3.047  0.1576 -0.2147 -0.2469
    1W        W33236  24.765  19.045   1.258 -0.0694  0.0391 -0.0799
    1W        W33237  19.854   8.069   2.368 -0.1623 -0.1921  0.1863
    1W        W33238  11.850   5.457   3.976 -0.0036  0.0690  0.1751
    1W        W33239  28.278  15.055   5.511 -0.1650 -0.0089 -0.1928
    1W        W33240   5.237   2.333   6.156  0.1366  0.2044 -0.1675
    1W        W33241  23.588   0.731   0.409 -0.0864 -0.1146 -0.0980
    1W        W33242  26.475  10.029   9.232  0.1047  0.1238 -0.4483
    1W        W33243  28.476   0.573   2.627  0.0576 -0.0877 -0.0482
    1W        W33244   3.409   3.339   2.329  0.1318 -0.0232  0.0070
    1W        W33245  15.557   7.281   2.001 -0.0034  0.1756 -0.0527
    1W        W33246  28.102  18.300   9.222 -0.2474  0.1687 -0.2148
    1W        W33247   9.412  19.628   8.864  0.0652  0.0153  0.0013
    1W        W33248  21.012  22.021   7.525  0.2579 -0.2275  0.1162
    1W        W33249  12.402   9.055   9.152 -0.2610 -0.1003 -0.3205
    1W        W33250   8.500  24.521   1.605 -0.1864 -0.2949  0.2414
    1W        W33251  29.099   4.355   5.221 -0.0088 -0.1563 -0.0337
    1W        W33252  17.832   4.152   9.483 -0.1659 -0.0652 -0.1378
    1W        W33253  24.381  23.048   8.534  0.2408 -0.2398 -0.0806
    1W        W33254  27.643  20.940   0.825  0.1350 -0.1430  0.2835
    1W        W33255  16.908  25.818   2.565  0.2530 -0.0867  0.3322
    1W        W33256  15.771  24.603   1.843  0.0152 -0.1187  0.3831
    1W        W33257   2.000   1.322   9.677  0.0212  0.4059  0.2232
    1W        W33258  20.158  10.856   2.252  0.1008 -0.1807  0.1147
    1W        W33259   0.003   8.688   3.023 -0.1615 -0.1783 -0.0062
    1W        W33260  21.835  17.025   7.278  0.4190 -0.1773 -0.1139
    1W        W33261   7.367  10.581   1.036 -0.2932  0.1045  0.1232
    1W        W33262   6.453  19.792   5.823 -0.0079 -0.1028 -0.5183
    1W        W33263  28.392  22.725   1.401  0.3510  0.0658 -0.1915
    1W        W33264  18.221   5.887   8.823 -0.1686 -0.1157  0.0926
    1W        W33265   7.843  21.235   1.076 -0.1285  0.1503  0.2295
    1W        W33266   2.992  24.869   0.179 -0.1647 -0.1264  0.0157
    1W        W33267  23.052  29.272   0.445  0.0297 -0.0411 -0.0374
    1W        W33268   9.269  10.309   7.485 -0.0838 -0.1536  0.0327
    1W        W33269   7.054   1.781   0.050  0.0520  0.0826  0.2013
    1W        W33270   3.918  13.435   2.041 -0.1840  0.2854  0.4631
    1W        W33271   3.396  18.092   1.470 -0.1798  0.2284 -0.1413
    1W        W33272  26.818   4.370   9.464 -0.3514  0.0467 -0.1273
    1W        W33273   4.943  10.027   1.219 -0.4323 -0.0855 -0.1557
    1W        W33274  16.069  21.272   0.437  0.0611  0.2367  0.0287
    1W        W33275  11.094  16.405   1.175 -0.1919 -0.1969 -0.1527
    1W        W33276  28.734  15.766   1.192 -0.2977 -0.2535 -0.3138
    1W        W33277   8.879  12.280   2.251 -0.2112 -0.0389  0.0570
    1W        W33278  14.599  19.281   9.379  0.0713 -0.1742  0.0399
    1W        W33279  12.409  25.960   0.799  0.0544 -0.2136  0.1036
    1W        W33280   4.035  20.847   8.887 -0.0389  0.0975 -0.0766
    1W        W33281  18.012   1.199   9.478 -0.0417  0.0914  0.0036
    1W        W33282  15.260  24.019   9.614 -0.4840  0.2331  0.1978
    1W        W33283   1.089  23.084   1.058  0.2397 -0.0295  0.0612
    1W        W33284   0.381   4.245   1.703 -0.1051 -0.2875  0.1984
    1W        W33285  19.198   7.636   0.687 -0.1416  0.1836  0.0823
    1W        W33286  12.311   1.364   7.600 -0.1650 -0.3839  0.1360
    1W        W33287  11.721   5.917   2.280 -0.2568 -0.1769 -0.3977
    1W        W33288   3.563   6.826   0.465 -0.1916  0.2011  0.1127
    1W        W33289  25.266  17.563   1.468  0.2876 -0.1685  0.1684
    1W        W33290   7.833   9.799   8.825  0.2987  0.3585  0.0467
    1W        W33291  15.362  25.726   7.490 -0.1214  0.0344 -0.1286
    1W        W33292  11.945   3.801   8.248 -0.0416  0.1974 -0.0387
    1W        W33293  24.689  14.707   0.816  0.1296 -0.1851 -0.0065
    1W        W33294   3.136  18.859   5.780 -0.1656  0.1901  0.0268
    1W        W33295  17.480  11.546   8.808 -0.2897  0.1266 -0.0267
    1W        W33296  20.602  10.126   0.352  0.1552 -0.0615  0.1059
    1W        W33297   3.967   2.418   9.193  0.1416 -0.1010 -0.1731
    1W        W33298   9.725  23.393   9.137  0.0581  0.4692 -0.0494
    1W        W33299  20.485   5.726   1.838 -0.0509 -0.0912  0.1899
    1W        W33300  15.912  21.535   9.083 -0.0474 -0.0967 -0.1012
    1W        W33301   4.608  16.076   2.123  0.0525  0.1292 -0.1710
    1W        W33302  19.055  18.708   8.057 -0.0666  0.0681 -0.1571
    1W        W33303  10.847  21.036   0.957 -0.3435  0.0094 -0.1944
    1W        W33304  10.154   4.741   9.681  0.0534 -0.2416  0.0718
    1W        W33305   2.199   4.948   5.627  0.2251 -0.0436 -0.3126
    1W        W33306   0.604  26.700   1.668 -0.3129 -0.1873 -0.1878
    1W        W33307  15.580   6.614   8.342 -0.1874  0.2214  0.0562
    1W        W33308   4.003  17.072   2.193  0.2520  0.0131 -0.0669
    1W        W33309  29.345  29.362   5.978 -0.1706 -0.1617 -0.1126
    1W        W33310   4.518  23.704   1.885  0.0983  0.3337 -0.1336
    1W        W33311  23.300  25.679   9.194 -0.0557  0.1619  0.1118
    1W        W33312  24.238   5.850   1.765  0.0939 -0.1577  0.1562
    1W        W33313  12.461  21.132   9.213  0.0288  0.0095 -0.1498
    1W        W33314  23.773  11.442   9.032 -0.0600  0.1409  0.4525
    1W        W33315  14.577   7.920   9.388  0.0134 -0.0369  0.0047
    1W        W33316  16.007  29.360   8.639 -0.1641 -0.0683 -0.1426
    1W        W33317  27.624  12.724   9.431  0.2778 -0.1918 -0.0745
    1W        W33318   8.285  10.215   9.136 -0.2031 -0.2310  0.1049
    1W        W33319  23.931   2.208   1.187 -0.3558 -0.0720 -0.2945
    1W        W33320  16.838   4.720   3.181  0.0428  0.0814 -0.1296
    1W        W33321   2.643  20.347   2.011  0.0754  0.0183 -0.1662
    1W        W33322   2.864   7.815   2.198  0.3278 -0.1967 -0.0041
    1W        W33323  23.756   2.437   8.630  0.1237 -0.4491  0.0647
    1W        W33324  27.525   9.488   6.150  0.6579  0.0165  0.1598
    1W        W33325  18.105   8.072   9.292  0.0736 -0.1719 -0.1036
    1W        W33326   0.275  18.669   0.876 -0.0237 -0.1432 -0.0920
    1W        W33327  16.620   1.645   9.664 -0.0338 -0.0830 -0.0101
    1W        W33328  22.201  22.550   7.600 -0.0152  0.0649 -0.0592
    1W        W33329   4.547  15.877   0.808  0.2230 -0.1344  0.0694
    1W        W33330  13.693  22.302   1.773  0.0892  0.0095  0.0201
    1W        W33331  28.153   7.970   0.232 -0.1259 -0.1456  0.0641
    1W        W33332  22.252   1.672   8.125 -0.1642  0.0483 -0.2178
    1W        W33333  10.981  21.214   8.383  0.0051  0.1742 -0.0445
    1W        W33334   9.965  23.716   5.859  0.1966 -0.1650  0.1982
    1W        W33335   1.398   7.420   1.211 -0.2154 -0.0825  0.0388
    1W        W33336   2.137   6.220   0.212 -0.1040 -0.0521 -0.0412
    1W        W33337  13.509  28.175   0.535  0.1013 -0.1168  0.0669
    1W        W33338   0.957  21.146   8.720  0.0415  0.2575 -0.0778
    1W        W33339  28.808   4.964   6.441 -0.3245 -0.2215  0.2399
    1W        W33340   2.057   3.107   7.051 -0.1185  0.0778  0.2971
    1W        W33341  20.629  18.258   8.957  0.0633  0.0693  0.0625
    1W        W33342   7.678  26.535   2.171  0.1438  0.1400  0.2927
    1W        W33343   9.514  15.324   9.294 -0.1137 -0.0285 -0.0692
    1W        W33344  14.470   6.919   1.188 -0.0033  0.0495  0.0455
    1W        W33345  25.042  22.679   2.181  0.1449 -0.3062  0.1747
    1W        W33346   1.289   9.680   3.360  0.3360  0.6144  0.1976
    1W        W33347  23.966   0.446   6.246  0.2999  0.0575  0.2099
    1W        W33348  26.185  15.877   1.305  0.0856  0.0406  0.0096
    1W        W33349  12.855   4.400   7.133  0.0501  0.1997 -0.2143
    1W        W33350   7.905  28.212   9.663 -0.1957 -0.1391 -0.1842
    1W        W33351  10.036  19.541   0.371  0.0297 -0.2297  0.1590
    1W        W33352  16.731   8.219   2.835  0.0456 -0.1115  0.1478
    1W        W33353   6.033  15.888   8.516  0.1234 -0.0431  0.0248
    1W        W33354  12.888   4.008   3.419  0.0046 -0.1721  0.1820
    1W        W33355  19.729  23.286   7.385  0.3165 -0.1820 -0.0144
    1W        W33356  11.971   5.976   8.369 -0.1874 -0.0072 -0.1540
    1W        W33357  20.993  25.898   2.318 -0.0846 -0.1154  0.2273
    1W        W33358  11.611  26.253   1.523  0.1335  0.0287  0.0962
    1W        W33359  22.980   1.287   9.687 -0.0164 -0.3681  0.0883
    1W        W33360  21.703   2.531   8.413  0.0859  0.0143  0.1319
    1W        W33361  17.766  12.652   2.454  0.0646 -0.1814  0.2052
    1W        W33362  22.778  28.036   7.551 -0.1743 -0.2325  0.1546
    1W        W33363  28.864   7.660   8.605 -0.0045  0.0624 -0.4182
    1W        W33364  27.420  11.141   6.598 -0.0082  0.2319  0.0537
    1W        W33365   6.641   5.896   3.242 -0.0550  0.0187  0.0507
    1W        W33366   8.499  14.708   0.193 -0.0028  0.0052  0.0659
    1W        W33367   2.498  22.216   8.501 -0.2945 -0.1251  0.0418
    1W        W33368   7.992  20.732   0.527 -0.2270  0.0471 -0.1315
    1W        W33369  22.556  16.556   1.878  0.1106  0.1393  0.1107
    1W        W33370   6.427   6.501   1.022  0.1657  0.0032  0.3664
    1W        W33371   4.021  22.324   1.749 -0.2756  0.1963  0.1159
    1W        W33372   1.556  20.626   0.487 -0.0333 -0.1485 -0.0473
    1W        W33373  27.473  20.887   6.858  0.1943 -0.0846 -0.1083
    1W        W33374  12.038  23.917   0.251 -0.1518  0.1626 -0.1481
    1W        W33375  13.951  20.359   7.770 -0.2216 -0.0320  0.1171
    1W        W33376  26.187  26.664   2.893 -0.3706 -0.3932  0.2167
    1W        W33377   8.074   3.553   1.240  0.0291  0.2572 -0.0058
    1W        W33378  15.038   4.692   2.499  0.2716  0.0829 -0.2802
    1W        W33379  25.005   5.360   7.899 -0.0147 -0.1993 -0.0871
    1W        W33380  16.588  23.051   2.054  0.0763  0.1677  0.2250
    1W        W33381  10.309   7.420   2.017  0.1724  0.1379 -0.0048
    1W        W33382  21.370   7.691   2.840 -0.3526 -0.0549  0.0305
    1W        W33383  22.914  21.541   3.388  0.1102  0.0083  0.2605
    1W        W33384   8.764  24.703   0.346 -0.0762  0.0830  0.1025
    1W        W33385  13.772   0.148   0.415 -0.2705  0.2215  0.0005
    1W        W33386   3.146  21.046   7.413 -0.0176  0.1116 -0.0839
    1W        W33387   6.868  25.630   1.750 -0.1848  0.0357  0.0219
    1W        W33388  16.772   7.772   2.512  0.0719 -0.2897 -0.0118
    1W        W33389  13.902   0.037   8.717 -0.0236 -0.3966 -0.2634
    1W        W33390  18.356   8.023   7.680  0.0894  0.2407 -0.0809
    1W        W33391   4.856  24.549   9.632  0.3836 -0.4068 -0.0282
    1W        W33392   9.625  23.984   1.270 -0.0884 -0.1119  0.0533
    1W        W33393   1.660   2.215   1.170  0.2573  0.1492  0.0019
    1W        W33394   9.662   4.594   2.912 -0.0250 -0.0303  0.2201
    1W        W33395  17.333  17.615   1.061  0.0310  0.1762 -0.3700
    1W        W33396   6.310  23.873   9.637 -0.0444 -0.0283  0.1835
    1W        W33397  16.419   4.481   7.934  0.1780  0.0391 -0.1024
    1W        W33398   4.410  29.088   1.502 -0.0972 -0.0442  0.1133
    1W        W33399  17.900   6.842   1.824 -0.0772  0.2534 -0.1988
    1W        W33400  18.918   8.900   9.493  0.1588 -0.0893 -0.3090
    1W        W33401   8.302   2.913   9.524 -0.4048  0.1165 -0.3308
    1W        W33402  12.281  25.291   6.365  0.0547  0.0955 -0.3158
    1W        W33403  25.094   2.045   1.643 -0.2396  0.0175  0.0024
    1W        W33404   1.712  14.214   1.502 -0.1834 -0.2224 -0.1743
    1W        W33405  10.864   0.142   2.580  0.0677 -0.4960  0.0848
    1W        W33406   2.450  17.318   7.009 -0.1859 -0.0165 -0.1285
    1W        W33407   8.216   9.034   9.404 -0.1651 -0.1292  0.0152
    1W        W33408   6.978  26.596   0.647  0.1941 -0.2073 -0.1510
    1W        W33409   9.629  27.998   1.576 -0.0047 -0.1598  0.0225
    1W        W33410   7.616  13.022   1.526 -0.1681 -0.1588  0.2270
    1W        W33411  22.171  19.861   2.008 -0.3605 -0.0788  0.1907
    1W        W33412   2.168  14.376   0.011  0.0942  0.1092  0.1536
    1W        W33413   9.412  24.907   8.678 -0.3544  0.1312  0.0165
    1W        W33414  13.856  10.352   9.541 -0.0751  0.1617 -0.0378
    1W        W33415  22.544  17.664   7.616 -0.1328 -0.0991 -0.2520
    1W        W33416  19.699  10.140   1.271 -0.1009  0.1669  0.1431
    1W        W33417   2.265  18.019   2.669 -0.0569  0.0925  0.3082
    1W        W33418   2.336  23.746   1.130  0.0863  0.0331  0.0312
    1W        W33419  25.859  24.873   0.462  0.3093  0.1614 -0.0747
    1W        W33420   2.503  18.780   2.625 -0.3352 -0.1058  0.1237
    1W        W33421  18.101  26.526   6.818 -0.2732  0.0484 -0.1401
    1W        W33422  25.655  19.255   0.664  0.1674  0.1294 -0.0574
    1W        W33423  22.724  27.732   8.472  0.0885 -0.0138 -0.1061
    1W        W33424   7.580   7.172   0.521 -0.0253  0.0808  0.1653
    1W        W33425   4.364  28.611   6.142 -0.1482  0.0521  0.0168
    1W        W33426  16.574  17.405   8.830 -0.0619 -0.0258  0.1314
    1W        W33427  22.640  17.251   9.442  0.1910  0.2984 -0.5060
    1W        W33428   0.276   1.456   3.008 -0.1584  0.2884 -0.2321
    1W        W33429  13.300  13.544   9.663 -0.2490 -0.3210 -0.1752
    1W        W33430  18.226  16.256   1.832 -0.0686 -0.2355 -0.3250
    1W        W33431  24.017  27.495   8.062 -0.2124  0.0623 -0.1460
    1W        W33432  18.014  27.302   3.678 -0.0089  0.1007  0.2086
    1W        W33433  19.894   4.614   0.610 -0.2239  0.2622  0.0783
    1W        W33434   3.057  19.094   6.957  0.1713  0.0490 -0.2825
    1W        W33435  14.216  14.481   9.523  0.3594  0.0453 -0.0627
    1W        W33436   3.450  28.531   1.708 -0.0268  0.0997 -0.2532
    1W        W33437  17.108  23.128   2.173  0.0423 -0.3729 -0.0280
    1W        W33438   8.045   6.316   9.415  0.2143  0.3061  0.0553
    1W        W33439  28.658  18.316   0.795  0.1653 -0.2089  0.2502
    1W        W33440   0.301  14.257   0.339  0.3398  0.0463 -0.2122
    1W        W33441  27.372  11.924   9.479  0.0294  0.1092  0.1135
    1W        W33442  11.611   3.725   0.827  0.0187 -0.5976  0.3099
    1W        W33443  14.468   2.894   3.586 -0.2339 -0.2918  0.1584
    1W        W33444  28.498  28.811   1.457  0.2532  0.5339 -0.1158
    1W        W33445   6.499  17.962   1.404  0.1793  0.5192  0.0205
    1W        W33446   7.601  22.401   9.577  0.1018 -0.1023 -0.0446
    1W        W33447  22.570   2.714   0.657  0.1451  0.1240  0.1117
    1W        W33448  26.231  24.504   0.510  0.4452  0.0619 -0.1053
    1W        W33449  17.337   2.660   7.460  0.0070  0.1635 -0.3271
    1W        W33450  26.107  21.407   2.205 -0.1658  0.1119  0.0396
    1W        W33451  23.051  13.799   1.548  0.0776 -0.1093 -0.0672
    1W        W33452  24.679  26.211   1.167  0.0596 -0.0557 -0.2043
    1W        W33453   8.342   9.934   7.048  0.0994  0.1950  0.0482
    1W        W33454  14.602   1.849   2.566 -0.0444  0.2386 -0.0252
    1W        W33455   5.126  24.999   0.876  0.1916  0.0246 -0.2082
    1W        W33456  26.828  18.678   0.111 -0.0789  0.1313  0.0324
    1W        W33457   8.229  22.505   0.732 -0.1082 -0.1786  0.0222
    1W        W33458  18.546   6.508   7.567  0.0074  0.2508  0.1807
    1W        W33459  11.687  14.901   9.467  0.2183  0.3129  0.0350
    1W        W33460  19.716   8.997   9.348  0.2464 -0.0814 -0.1913
    1W        W33461   6.902  15.712   9.602 -0.1206  0.1865 -0.2791
    1W        W33462   8.254   5.925   3.735 -0.0327  0.1185 -0.0604
    1W        W33463  21.238  21.284   2.510  0.2470 -0.0139  0.0627
    1W        W33464  16.663  22.799   2.543 -0.1816  0.1139  0.0747
    1W        W33465  12.569   0.924   3.255 -0.1448 -0.0146  0.1207
    1W        W33466   2.805  15.402   0.324  0.1192 -0.0335  0.0262
    1W        W33467  24.989  27.556   8.828  0.0208  0.0398  0.1377
    1W        W33468   5.063  24.905   6.148 -0.4734  0.2614  0.1736
    1W        W33469   5.143  24.321   6.892  0.0152 -0.1025 -0.0707
    1W        W33470  28.398   3.245   2.061  0.0686  0.2229  0.0710
    1W        W33471   0.146   5.121   8.477  0.1910 -0.2118  0.0902
    1W        W33472   8.066  22.559   6.653 -0.2087 -0.0385 -0.0829
    1W        W33473  16.440  19.206   2.532 -0.0116  0.1301 -0.2539
    1W        W33474  25.127  27.444   2.367 -0.0712  0.2558  0.2825
    1W        W33475   9.193   2.344   2.953 -0.1116  0.0416 -0.0067
    1W        W33476   2.953  23.626   6.614 -0.2002 -0.3321  0.0738
    1W        W33477   1.543   3.000   6.413  0.2078 -0.1110 -0.0826
    1W        W33478  12.768  13.959   8.158 -0.1937  0.0120 -0.1689
    1W        W33479  23.738   6.964   0.107 -0.3150  0.3159  0.1087
    1W        W33480  23.238  17.405   1.188  0.0022  0.1386  0.1268
    1W        W33481  17.002  18.953   8.089  0.0112  0.0851 -0.3041
    1W        W33482   2.738   8.692   7.715  0.2149 -0.1129 -0.4281
    1W        W33483   3.046  22.886   1.028  0.0014 -0.2290  0.0075
    1W        W33484  24.542  10.265   8.864  0.1359 -0.0514  0.2108
    1W        W33485  28.769  11.137   0.201  0.2650  0.1959  0.0063
    1W        W33486   9.655  23.321   1.819 -0.1702  0.0421 -0.0422
    1W        W33487  10.180  17.608   7.714  0.0121 -0.2758 -0.1257
    1W        W33488  17.156   0.837   0.155 -0.1047 -0.0100  0.0091
    1W        W33489  23.241   0.395   0.089 -0.1517 -0.2687  0.1478
    1W        W33490  25.576  10.585   0.118 -0.1130  0.3037 -0.1912
    1W        W33491  16.428  16.721   0.071 -0.0190 -0.0490  0.1351
    1W        W33492  20.692   6.087   1.430  0.0904 -0.0625  0.0236
    1W        W33493  14.117  19.231   0.920  0.3070  0.0462  0.0700
    1W        W33494   4.917  28.267   8.174 -0.2849 -0.0255  0.2030
    1W        W33495   3.944  19.634   0.459 -0.0691 -0.0457  0.0990
    1W        W33496  23.083  15.714   7.395 -0.0566 -0.0632 -0.1255
    1W        W33497  26.987  24.292   2.308  0.0799 -0.1138  0.2016
    1W        W33498  28.476  11.241   8.800  0.2493 -0.0664  0.3000
    1W        W33499   4.164  25.577   8.244 -0.1934 -0.0313 -0.0096
    1W        W33500   2.673  13.889   1.454  0.0851  0.2225  0.0848
    1W        W33501  21.452  27.031   1.047  0.0507  0.0984 -0.2397
    1W        W33502   5.049  27.371   7.601  0.0847  0.0058  0.2267
    1W        W33503  13.720  10.066   1.659 -0.0798 -0.0553  0.4304
    1W        W33504  20.044  10.678   7.615  0.0020 -0.3135  0.1539
    1W        W33505  24.972  11.400   7.966 -0.1564 -0.3935  0.0396
    1W        W33506   5.950  19.106   9.353 -0.2279  0.2876 -0.0643
    1W        W33507   0.545  17.609   2.396 -0.0820  0.1386 -0.1943
    1W        W33508  25.419  15.419   2.082  0.0710  0.2304 -0.1626
    1W        W33509  16.894   0.920   2.796 -0.0102  0.2322 -0.2264
    1W        W33510   6.954   8.582   1.756 -0.1162 -0.3022  0.2414
    1W        W33511  27.018  16.582   6.278 -0.1742 -0.0985  0.3107
    1W        W33512  27.064  10.935   0.669  0.0175  0.3075 -0.2430
    1W        W33513  17.822  28.795   8.616 -0.2830 -0.0068  0.0891
    1W        W33514   1.301   3.836   0.186 -0.0208  0.3476  0.0155
    1W        W33515  23.257  19.505   7.201  0.1210 -0.3487 -0.3449
    1W        W33516  16.129   7.066   2.641  0.1794 -0.3052  0.3236
    1W        W33517   9.633  11.078   3.345  0.1001 -0.0727  0.0895
    1W        W33518   7.812  24.798   6.982 -0.1951  0.0019 -0.2216
    1W        W33519  13.787  18.416   8.554  0.1918  0.0468 -0.3493
    1W        W33520  10.397  19.908   7.138  0.2082 -0.2002  0.0265
    1W        W33521  18.085  16.817   7.285  0.3976 -0.1071  0.1870
    1W        W33522   1.690   2.432   3.125  0.0886 -0.2503  0.2272
    1W        W33523  12.932  22.947   0.730 -0.0910 -0.2234  0.3139
    1W        W33524   4.177  12.990   6.801 -0.0001 -0.2848  0.0244
    1W        W33525   4.385  21.338   8.462  0.0581 -0.0737  0.0451
    1W        W33526  20.674  22.801   0.350 -0.2479 -0.1256 -0.0758
    1W        W33527  20.027  23.417   2.209  0.2910  0.0250 -0.1950
    1W        W33528   7.851  10.946   7.729 -0.1190  0.1303  0.4924
    1W        W33529  22.739   4.893   1.172  0.3362  0.0967  0.1386
    1W        W33530   5.181  14.791   3.123  0.0354 -0.1276  0.3299
    1W        W33531   9.832  15.584   8.996 -0.0490  0.1539 -0.1208
    1W        W33532   3.974   2.253   7.427 -0.0804  0.0400 -0.3326
    1W        W33533  17.166  13.373   1.529 -0.0158  0.0303 -0.1666
    1W        W33534   9.713   6.023   9.415 -0.1437 -0.3803  0.0459
    1W        W33535  15.165  22.354   1.286  0.1059 -0.0091 -0.0132
    1W        W33536  26.619  12.949   7.622 -0.0168 -0.1353 -0.0393
    1W        W33537  28.558  25.542   8.313  0.1983 -0.2257  0.1267
    1W        W33538   6.168  15.756   9.416  0.0094  0.2097  0.1626
    1W        W33539   7.366   2.542   7.978  0.3356 -0.0943 -0.3949
    1W        W33540   6.486  26.048   7.233  0.1669 -0.1432  0.0839
    1W        W33541  17.841   3.643   9.325  0.0030  0.1612  0.0824
    1W        W33542   5.402  21.119   0.005 -0.0702  0.5239 -0.0593
    1W        W33543  27.505  15.707   7.028  0.0044 -0.0243  0.1367
    1W        W33544  12.873   4.961   7.382 -0.4332 -0.0030 -0.1819
    1W        W33545  28.751   0.712   1.170  0.1160 -0.2849 -0.1010
    1W        W33546   2.357  14.793   1.039 -0.0275  0.1684 -0.0514
    1W        W33547  19.105  11.222   2.486  0.1737 -0.0922 -0.2677
    1W        W33548   7.100  18.256   7.311 -0.0955 -0.0075  0.1125
    1W        W33549  21.848   1.856   0.433 -0.0856  0.0537  0.3263
    1W        W33550  24.337  22.793   7.449  0.1399  0.1729  0.1108
    1W        W33551  11.847   1.205   8.733  0.0352  0.0851 -0.0184
    1W        W33552  23.680   5.697   6.330  0.1109 -0.1947  0.0172
    1W        W33553   6.305   8.893   0.099  0.0818 -0.1810 -0.0083
    1W        W33554  29.120   5.265   8.140  0.3207 -0.1545 -0.0069
    1W        W33555  25.721  25.169   9.006 -0.3032  0.0541  0.3442
    1W        W33556  11.579  13.901   0.450  0.1384  0.1615  0.0652
    1W        W33557   4.164  25.869   0.820 -0.0133  0.0975 -0.0423
    1W        W33558  15.758  27.684   6.871 -0.4275  0.1044  0.2230
    1W        W33559  16.642   7.346   3.302  0.1285 -0.1016  0.1231
    1W        W33560   6.410  29.053   8.028 -0.2654  0.1775  0.1334
    1W        W33561   4.345   2.000   7.992 -0.0257  0.2098  0.0669
    1W        W33562  24.863  18.502   8.973 -0.0347  0.0088 -0.2816
    1W        W33563  25.265  18.154   7.798  0.1259 -0.0020  0.3357
    1W        W33564   5.133   9.303   7.819  0.1943 -0.0750 -0.2280
    1W        W33565   1.993  18.640   8.188  0.5122  0.0282  0.0365
    1W        W33566   0.900  22.212   1.224  0.1057 -0.0761 -0.1049
    1W        W33567   6.521   4.481   1.949  0.1747 -0.1280 -0.3164
    1W        W33568  12.763  16.724   1.580 -0.0365 -0.2063 -0.2661
    1W        W33569  19.863  25.824   3.562  0.2804 -0.1443 -0.0191
    1W        W33570  11.888  25.536   6.946  0.0058 -0.1984  0.0075
    1W        W33571  22.420  20.320   3.148 -0.2083  0.1300 -0.3593
    1W        W33572  11.171   2.081   6.788 -0.0236  0.2974  0.0914
    1W        W33573  27.989  25.107   7.188  0.0283  0.2396 -0.2670
    1W        W33574  11.471  27.857   9.356 -0.0061  0.1571 -0.1797
    1W        W33575  10.012  27.725   9.621 -0.1857 -0.2297  0.3137
    1W        W33576  25.937  21.672   0.368  0.0574  0.3894 -0.1669
    1W        W33577  25.325  15.459   1.087 -0.0056  0.0912  0.0834
    1W        W33578  16.661   0.775   1.485 -0.1183  0.0827  0.1435
    1W        W33579   6.599   9.597   1.525 -0.0463  0.1419 -0.0577
    1W        W33580   5.288   3.907   6.527  0.0417 -0.1769  0.0675
    1W        W33581  29.003   4.327   9.506 -0.3371  0.3865  0.1136
    1W        W33582  11.249  22.549   7.527 -0.1024  0.0306 -0.1094
    1W        W33583  18.755  22.045   3.462  0.1338 -0.1076  0.0651
    1W        W33584   2.401  22.729   0.429 -0.0255  0.0361 -0.2069
    1W        W33585   6.084  26.660   2.397  0.1793 -0.0632 -0.1319
    1W        W33586  20.464  28.467   7.820 -0.0499 -0.2165  0.1398
    1W        W33587   9.497  17.815   9.536  0.3157 -0.1706  0.0714
    1W        W33588  12.644  24.505   0.473  0.0208  0.0733  0.1013
    1W        W33589   7.663  25.624   7.654 -0.3210  0.1055  0.0066
    1W        W33590   7.463   5.081   9.170 -0.1157  0.2159  0.1829
    1W        W33591  26.926  26.309   1.935 -0.0625  0.1854 -0.0901
    1W        W33592  28.206  17.395   8.062 -0.1900  0.1991 -0.0113
    1W        W33593  29.055   6.283   2.365 -0.1969 -0.1670  0.1218
    1W        W33594   6.754   4.780   9.133 -0.0380 -0.3288  0.3072
    1W        W33595   2.817  18.081   9.442 -0.0860 -0.3025  0.1979
    1W        W33596  10.100   2.305   9.297 -0.0189  0.1818  0.1094
    1W        W33597   1.715   4.175   6.060 -0.0106  0.0378  0.1304
    1W        W33598  27.853  12.002   2.366 -0.1812 -0.2471  0.0499
    1W        W33599  12.408   5.331   0.367 -0.1938 -0.3732  0.0170
    1W        W33600   8.929   5.438   3.302 -0.0592 -0.3694  0.1315
    1W        W33601  20.540  28.647   1.655 -0.1387 -0.1283  0.2477
    1W        W33602  25.066  11.842   6.659 -0.0749 -0.1048  0.0806
    1W        W33603  28.067  17.070   6.518  0.2615  0.0484  0.1832
    1W        W33604   8.791   1.937   2.804  0.0815 -0.1869  0.0720
    1W        W33605  12.438  23.665   1.094  0.1221 -0.1592 -0.2788
    1W        W33606   2.635   2.358   7.171  0.1256  0.0048 -0.0794
    1W        W33607  25.850   3.322   6.729 -0.2144  0.0965  0.1182
    1W        W33608   1.318   8.994   7.100  0.1685 -0.1868 -0.0164
    1W        W33609  18.733  18.446   7.694  0.2040  0.2589  0.0584
    1W        W33610  23.779   5.564   5.785  0.1433 -0.0224 -0.1279
    1W        W33611  28.752  13.104   1.136 -0.2398 -0.0408  0.2162
    1W        W33612  16.808  21.605   7.215 -0.0719  0.0158  0.0723
    1W        W33613  21.636  13.110   9.101 -0.2349  0.2963 -0.0499
    1W        W33614  10.305   0.763   8.702 -0.0504  0.1756 -0.1119
    1W        W33615  21.057   7.309   3.531 -0.0893 -0.0096  0.2124
    1W        W33616  22.402  20.163   4.187  0.3276 -0.0134  0.3322
    1W        W33617  23.489  22.988   1.426  0.0701 -0.1938  0.1348
    1W        W33618  12.727  13.098   0.605 -0.1544 -0.0466  0.1377
    1W        W33619  17.986   5.878   1.577 -0.1442  0.0287  0.1758
    1W        W33620  20.366   9.571   8.059  0.0248 -0.2982  0.1467
    1W        W33621   0.498   9.230   7.497 -0.0863  0.1352 -0.3917
    1W        W33622   5.209  17.358   8.269  0.0506 -0.1720  0.1859
    1W        W33623   2.334  15.386   2.635 -0.2120  0.1876  0.0611
    1W        W33624  18.230  17.316   9.607 -0.0299  0.2124 -0.0079
    1W        W33625   9.570  24.920   1.591  0.0685 -0.1073 -0.1200
    1W        W33626  12.570  14.359   0.637 -0.1064  0.1099  0.1946
    1W        W33627   6.734  28.403   9.347 -0.3315  0.0748 -0.1812
    1W        W33628  16.822   5.377   7.464  0.0663 -0.0412  0.1148
    1W        W33629  28.935   4.810   0.876 -0.2361 -0.1928  0.1294
    1W        W33630  20.741   9.923   9.286 -0.2433  0.0532 -0.2175
    1W        W33631   3.870  24.552   1.568 -0.0660  0.0565  0.0970
    1W        W33632   3.445  23.781   6.351 -0.3161 -0.1539 -0.0246
    1W        W33633   0.353   0.097   6.644 -0.0596 -0.2462  0.2740
    1W        W33634  20.151  12.248   0.661 -0.2855  0.0903 -0.1970
    1W        W33635  14.663   5.990   7.992  0.0539 -0.0504  0.2960
    1W        W33636  24.153  24.516   8.365  0.3427 -0.1435 -0.1255
    1W        W33637   0.225  15.473   9.494 -0.0073 -0.1677 -0.0135
    1W        W33638  10.281  14.979   2.597  0.1167 -0.0455  0.0202
    1W        W33639  15.156  20.430   7.982 -0.3257 -0.1369 -0.0982
    1W        W33640   2.526   5.956   0.100  0.2397  0.1663  0.1272
    1W        W33641  17.009   7.661   3.024 -0.0460  0.1957  0.4765
    1W        W33642   0.316  27.799   9.282 -0.0791 -0.0404 -0.2518
    1W        W33643  27.133  26.896   3.074  0.1000 -0.1421 -0.1267
    1W        W33644  13.635  18.990   7.752  0.0570  0.2293 -0.1444
    1W        W33645  26.642  13.255   1.195 -0.0466 -0.2250 -0.2070
    1W        W33646  23.645  10.199   0.746  0.1837  0.0907  0.0271
    1W        W33647  18.814  22.446   9.496  0.1777 -0.0241 -0.2881
    1W        W33648  21.856  11.401   2.490 -0.0580 -0.1982  0.0248
    1W        W33649   0.564  22.059   1.580 -0.1620  0.1488 -0.3032
    1W        W33650  24.512  10.963   9.218  0.1520 -0.0398 -0.1143
    1W        W33651   0.804   4.223   2.019  0.0856  0.1290 -0.0776
    1W        W33652  21.007   1.642   7.078 -0.0722 -0.2192 -0.1475
    1W        W33653  17.150   8.095   3.399 -0.1448 -0.0455  0.0598
    1W        W33654  24.578  19.321   7.537  0.3321 -0.1229 -0.1543
    1W        W33655  11.244   6.019   8.498 -0.1218 -0.0921 -0.3425
    1W        W33656  10.322   8.779   7.838  0.1140  0.0527  0.1489
    1W        W33657  18.161   9.336   9.185 -0.1341  0.2450 -0.0654
    1W        W33658  11.051  13.511   8.622  0.0918 -0.2002 -0.1452
    1W        W33659   6.478  18.337   7.758  0.0725 -0.0323 -0.0759
    1W        W33660   1.750   1.514   1.097  0.1308 -0.2424  0.2218
    1W        W33661  15.360  12.244   1.170 -0.1860  0.0436 -0.0107
    1W        W33662  29.208  27.424   2.150 -0.0594 -0.2299  0.0508
    1W        W33663  28.248  11.615   9.047 -0.1466 -0.2259  0.0796
    1W        W33664  22.564  23.209   0.523  0.2015 -0.3114  0.1053
    1W        W33665  17.840  11.633   8.432 -0.3177  0.1233  0.2757
    1W        W33666  20.008   3.449   0.351  0.0864 -0.2721  0.3513
    1W        W33667  10.117   8.061   1.276 -0.0404 -0.2356  0.0389
    1W        W33668   5.925   2.037   7.581 -0.1834 -0.0597 -0.2273
    1W        W33669  17.359   9.911   7.700 -0.0773 -0.1906 -0.0212
    1W        W33670  15.747  20.807   9.395 -0.0049 -0.3614  0.4886
    1W        W33671  22.466  25.566   9.443 -0.3537  0.1672  0.0015
    1W        W33672   2.649  28.932   0.815  0.2531 -0.0841  0.3089
    1W        W33673  24.271   7.210   7.216 -0.1087  0.0778 -0.2515
    1W        W33674  21.083   9.964   7.849  0.3361  0.1474 -0.1682
    1W        W33675  18.257  26.796   1.266 -0.0741  0.0737 -0.1485
    1W        W33676   7.126  20.519   2.518  0.1010 -0.0592  0.0415
    1W        W33677   4.020  13.910   1.312 -0.1160  0.1067  0.2878
    1W        W33678   7.705  23.285   7.141 -0.1811  0.3439 -0.0643
    1W        W33679   0.574  18.749   9.405  0.2879  0.1144  0.1765
    1W        W33680  12.655  26.678   7.450  0.1990  0.0409  0.2685
    1W        W33681  16.671  15.525   7.856  0.0876  0.1934 -0.0985
    1W        W33682  27.407  28.802   0.111 -0.0002  0.0933 -0.0612
    1W        W33683   5.135  24.499   1.231 -0.2049  0.0189 -0.1146
    1W        W33684   0.420   8.899   6.650 -0.0022 -0.0177 -0.0032
    1W        W33685   1.509  21.131   8.810  0.2860 -0.1376 -0.0951
    1W        W33686  25.263   7.633   0.611  0.2635 -0.0569 -0.0678
    1W        W33687   6.687   9.383   9.001 -0.0006  0.0105 -0.0521
    1W        W33688   8.363   2.837   7.023  0.3291 -0.1745 -0.0655
    1W        W33689   2.716   6.292   0.576  0.2010  0.0700  0.0292
    1W        W33690   6.795   8.754   1.207 -0.1377  0.0840 -0.1976
    1W        W33691  20.709   3.412   7.610  0.1491 -0.0464 -0.0864
    1W        W33692  23.428   5.579   9.635 -0.2675 -0.0766 -0.1948
    1W        W33693  11.464   0.279   9.324  0.3500 -0.1096  0.1376
    1W        W33694  20.887  21.060   2.078 -0.1880 -0.0002  0.1107
    1W        W33695  20.093   6.310   9.040  0.4712  0.3803 -0.4233
    1W        W33696  14.735  18.633   1.231 -0.0613 -0.1429 -0.1809
    1W        W33697   5.208  17.918   0.467 -0.0435  0.0281  0.1095
    1W        W33698  28.822   3.627   0.239 -0.0537 -0.2371  0.0196
    1W        W33699  11.933  17.506   8.292  0.0147 -0.1896 -0.0517
    1W        W33700  26.429   7.814   9.677 -0.3758 -0.3060 -0.0024
    1W        W33701  23.437  24.496   1.779  0.0972  0.0664 -0.1696
    1W        W33702  21.977   7.405   3.510  0.1592  0.2817 -0.0250
    1W        W33703   7.743  20.010   1.814  0.3048 -0.1334 -0.2240
    1W        W33704   6.296   8.141   8.244  0.2191 -0.2715 -0.0504
    1W        W33705  17.558  13.904   7.626 -0.0490  0.3581  0.1039
    1W        W33706   1.959   6.946   6.829 -0.4820 -0.1344 -0.0069
    1W        W33707   3.520  10.090   0.538  0.0331 -0.1802  0.1053
    1W        W33708  28.137  19.653   0.581  0.1243  0.0916  0.1198
    1W        W33709  27.443   7.804   6.559  0.0659  0.0214  0.1420
    1W        W33710   5.513  15.416   1.245 -0.2132 -0.3543  0.0684
    1W        W33711  29.171  15.055   0.502 -0.4252  0.2155 -0.0853
    1W        W33712   3.653  28.382   1.202  0.0128 -0.0511  0.0976
    1W        W33713  13.064   6.221   2.095 -0.0660 -0.2098 -0.0177
    1W        W33714   6.550  20.725   8.131  0.3266  0.3303  0.0478
    1W        W33715  25.875  27.151   7.781 -0.2061  0.1493 -0.1723
    1W        W33716  15.187  19.791   0.776 -0.0069  0.0788  0.1166
    1W        W33717  25.531  17.910   9.585 -0.0728  0.0170  0.1957
    1W        W33718  19.454   9.844   9.640 -0.0156 -0.1174  0.0750
    1W        W33719  10.241   4.777   9.168  0.1484  0.0626  0.1657
    1W        W33720   4.578   6.951   5.965  0.0020 -0.0045  0.1588
    1W        W33721   2.091  19.012   9.553 -0.1464  0.1013 -0.3156
    1W        W33722   9.595   3.107   2.729  0.0313 -0.2857  0.3685
    1W        W33723  28.176   6.736   8.819 -0.3348 -0.3157  0.1526
    1W        W33724   5.224  18.915   0.579  0.0552 -0.0808  0.1866
    1W        W33725   7.392   3.802   8.897  0.0348 -0.0603 -0.0046
    1W        W33726   3.112  16.680   9.111  0.1507 -0.0541 -0.0705
    1W        W33727  26.770  10.703   6.939  0.1027 -0.0191 -0.2988
    1W        W33728  26.364  12.120   0.012 -0.0175  0.0801  0.2476
    1W        W33729  15.993  28.123   0.065  0.1044  0.2515  0.1030
    1W        W33730  20.520  12.806   0.525 -0.2019 -0.0320  0.0490
    1W        W33731  23.808  21.425   7.477  0.0890  0.0777 -0.3120
    1W        W33732  19.133  26.928   2.184 -0.1216  0.0568  0.2118
    1W        W33733  12.210  27.233   2.637  0.1776 -0.0678 -0.0228
    1W        W33734  27.752  17.623   1.041  0.0020 -0.1300 -0.3651
    1W        W33735  12.602  25.058   1.899  0.2131 -0.0133  0.1639
    1W        W33736  24.795  24.061   1.718 -0.1347  0.0970  0.0982
    1W        W33737  17.466  27.735   0.416  0.0729  0.1478 -0.1448
    1W        W33738  25.834  28.533   7.395 -0.1881 -0.1696 -0.0951
    1W        W33739   8.459   4.199   7.642 -0.0191 -0.0000  0.3536
    1W        W33740  27.730   5.619   1.260 -0.0676 -0.1951  0.1991
    1W        W33741   9.204  22.843   1.516 -0.0029  0.0709 -0.1399
    1W        W33742   2.932  11.477   3.117 -0.1863  0.3321  0.1499
    1W        W33743  22.106  11.415   9.101 -0.3438 -0.2479 -0.0689
    1W        W33744   5.424  21.788   9.085 -0.3172  0.1440  0.0482
    1W        W33745   5.660   1.350   2.154  0.0530 -0.1793 -0.0199
    1W        W33746   5.185  21.479   2.275  0.2326  0.0551 -0.2994
    1W        W33747  22.812  28.107   0.672 -0.2821  0.1189 -0.1287
    1W        W33748  27.603   0.093   0.655  0.4316 -0.1549 -0.3124
    1W        W33749  22.177   2.793   5.775  0.3056 -0.2292 -0.0736
    1W        W33750  22.792  27.554   0.942 -0.1924  0.1814  0.1696
    1W        W33751   2.932  11.875   7.263 -0.1588 -0.0844 -0.0079
    1W        W33752  22.539  27.214   9.183  0.0841  0.0962  0.1572
    1W        W33753  14.634  22.420   1.999  0.1148 -0.1305 -0.3937
    1W        W33754  15.821   1.303   8.608  0.0875 -0.0682  0.1113
    1W        W33755  15.746  16.873   7.716  0.2201  0.2676  0.2899
    1W        W33756   5.584  21.499   2.618 -0.3173  0.1572  0.2527
    1W        W33757  14.309  10.766   1.585  0.2786 -0.0021  0.1299
    1W        W33758  28.916   1.280   9.678  0.0195 -0.1883 -0.0118
    1W        W33759  10.264  23.531   9.134 -0.3526 -0.1185  0.1572
    1W        W33760   0.130  10.345   1.527 -0.0588  0.1558  0.0477
    1W        W33761  17.878  26.273   7.274  0.1649 -0.2503  0.0327
    1W        W33762   8.226  10.698   2.234  0.0323  0.1999  0.2381
    1W        W33763   6.323  16.611   2.151 -0.0183 -0.0234 -0.1702
    1W        W33764   6.971  11.024   1.468  0.0616  0.2163  0.0163
    1W        W33765  25.761   9.973   7.324  0.2889 -0.0483  0.1165
    1W        W33766  13.729  13.320   2.346 -0.2014  0.1252 -0.3579
    1W        W33767   0.651  29.014   6.643 -0.2209  0.1088  0.2556
    1W        W33768  16.193  20.135   0.251 -0.0923 -0.3862 -0.0300
    1W        W33769  22.156   2.689   1.059 -0.1397  0.0315  0.0452
    1W        W33770   6.381  17.737   0.086 -0.0779 -0.0528  0.0223
    1W        W33771  22.592  20.856   2.915  0.0357  0.1802 -0.1487
    1W        W33772   7.146   9.328   2.025  0.0245 -0.1850 -0.1255
    1W        W33773  11.673  17.676   1.968  0.0075 -0.2914 -0.3438
    1W        W33774  14.913  13.979   7.382  0.3632  0.1567  0.0385
    1W        W33775  25.042   3.976   9.264  0.0853  0.0268 -0.1204
    1W        W33776  23.090  25.784   2.419 -0.2039 -0.1416 -0.3320
    1W        W33777   2.248   3.884   8.918  0.1545 -0.4804  0.2949
    1W        W33778  19.312  28.353   8.522  0.0622 -0.1541  0.2197
    1W        W33779   8.086  20.769   1.023 -0.0798  0.1417  0.2892
    1W        W33780   8.386  11.961   7.110 -0.2961 -0.3705 -0.0686
    1W        W33781  21.839   5.322   1.595 -0.0303  0.1045 -0.0609
    1W        W33782   1.159  17.134   6.686  0.1563  0.1167 -0.0693
    1W        W33783   3.639  25.356   6.512  0.0219  0.0801  0.1694
    1W        W33784  27.796   0.842   8.412 -0.1394  0.4464 -0.0821
    1W        W33785   3.725  21.954   9.482  0.1277 -0.0084 -0.0402
    1W        W33786  20.474   1.476   1.494  0.1088  0.1807  0.0545
    1W        W33787  26.976   3.126   6.720  0.0363  0.1186 -0.0610
    1W        W33788   5.447  12.732   9.496  0.0017 -0.2434  0.0889
    1W        W33789   8.527  13.215   2.030 -0.1022 -0.0022 -0.4075
    1W        W33790  28.740  25.546   2.567 -0.1040 -0.1042  0.1233
    1W        W33791   8.626   8.689   2.281  0.1941 -0.0032  0.1561
    1W        W33792  17.230   3.430   8.012  0.0604  0.2089 -0.3731
    1W        W33793  17.630  26.973   2.759  0.0562 -0.0172  0.0787
    1W        W33794  11.487  13.911   8.643  0.2487  0.0643 -0.1070
    1W        W33795  27.262   9.283   8.252  0.0162 -0.0411 -0.2796
    1W        W33796  10.103  18.271   0.072 -0.5182  0.1729 -0.2990
    1W        W33797   8.283  21.660   0.525 -0.0518 -0.1675 -0.0305
    1W        W33798   3.207  12.674   8.506  0.2924 -0.3877  0.0924
    1W        W33799   5.055  11.624   7.362  0.2024 -0.2706 -0.0776
    1W        W33800   2.819  23.699   8.422 -0.0444  0.1767 -0.0745
    1W        W33801  21.856  14.303   0.262 -0.0771 -0.3378 -0.2447
    1W        W33802   7.236   6.437   2.594 -0.2535 -0.0942  0.1574
    1W        W33803  25.719   3.747   7.719 -0.2477  0.3512  0.0498
    1W        W33804  11.160  28.464   8.157 -0.1204  0.0128 -0.0106
    1W        W33805  21.447   0.030   2.977 -0.1246 -0.4905  0.0965
    1W        W33806  20.814   4.326   7.061  0.1280 -0.0205 -0.1995
    1W        W33807  24.665  21.241   1.100  0.0617  0.0494 -0.0575
    1W        W33808  28.446  12.091   1.169  0.3008 -0.0749 -0.3337
    1W        W33809   1.608  22.519   0.063  0.1690  0.2615  0.0540
    1W        W33810  25.410  23.701   9.247  0.1920  0.0725  0.1775
    1W        W33811  23.536   3.318   9.373  0.0160  0.3080 -0.0555
    1W        W33812   3.210  27.651   8.928 -0.1938  0.1238  0.1221
    1W        W33813  14.018   9.991   7.791  0.0051  0.2460  0.0408
    1W        W33814  28.411  20.781   8.979  0.2488 -0.0806  0.3606
    1W        W33815  17.490   2.765   2.605  0.1885  0.2277 -0.0030
    1W        W33816   9.756  12.790   8.855 -0.2581  0.1954 -0.0491
    1W        W33817  17.316  16.279   8.894  0.0055  0.2121  0.0015
    1W        W33818   0.960  14.751   2.054  0.2115  0.1077  0.0409
    1W        W33819  28.904  10.885   6.247 -0.0205 -0.0973 -0.0035
    1W        W33820  16.231  28.917   8.537  0.0534  0.0607  0.0251
    1W        W33821  27.074  14.802   7.825 -0.0628 -0.0107 -0.0876
    1W        W33822   6.712  17.796   8.926  0.3955 -0.1025  0.2636
    1W        W33823  20.546  17.012   8.643  0.0803  0.1936  0.2211
    1W        W33824   8.596  17.360   8.009 -0.0468  0.1640 -0.1116
    1W        W33825  17.006   8.602   0.424 -0.1695  0.1168  0.2647
    1W        W33826  28.039   7.024   0.508 -0.3384 -0.3320  0.1567
    1W        W33827  17.460  25.551   2.553  0.2128 -0.1326 -0.0924
    1W        W33828   8.584  27.918   3.217 -0.1631  0.3023  0.0541
    1W        W33829  13.875   1.502   7.935 -0.0295  0.0831  0.0276
    1W        W33830  25.805  12.589   0.535  0.0624 -0.0031  0.3156
    1W        W33831   9.324  26.723   0.929 -0.1231  0.1962  0.3265
    1W        W33832   3.614  22.818   8.737  0.0766  0.0911  0.3670
    1W        W33833   7.522  28.931   2.316 -0.2095 -0.2985 -0.0488
    1W        W33834   6.568   9.135   0.480  0.1762 -0.3046 -0.0017
    1W        W33835  18.497  17.646   8.053  0.1142  0.2500 -0.0575
    1W        W33836  11.617  28.985   2.302  0.0524 -0.0456  0.1675
    1W        W33837   5.866  24.445   0.719  0.0079  0.2566  0.4358
    1W        W33838   9.328   9.882   7.152  0.0423 -0.0341  0.0117
    1W        W33839   5.880  19.083   2.007  0.2534 -0.1156 -0.1626
    1W        W33840   5.744  28.925   0.313 -0.2053 -0.0695  0.0650
    1W        W33841  22.139  27.323   0.279  0.3481 -0.2096 -0.1516
    1W        W33842  22.760  23.600   7.320 -0.2531  0.1563 -0.1995
    1W        W33843  27.293   1.056   2.347 -0.1936  0.2068 -0.1045
    1W        W33844   2.282   6.333   3.140  0.0694  0.0468 -0.0574
    1W        W33845  28.990   3.825   9.482 -0.0400 -0.1957  0.1002
    1W        W33846  13.033   9.538   8.901  0.0366 -0.0518  0.2653
    1W        W33847  13.945  20.443   1.987  0.0500  0.2870  0.0952
    1W        W33848  27.031  20.695   9.243 -0.1540 -0.1268  0.1042
    1W        W33849   8.594  24.219   1.007 -0.2191 -0.1581 -0.0622
    1W        W33850   4.530  27.719   7.813 -0.3299  0.0381  0.1052
    1W        W33851  13.534  22.727   7.945  0.2455  0.3283  0.3202
    1W        W33852   5.737  16.806   1.261  0.0548  0.2406 -0.1411
    1W        W33853   2.446  17.827   1.348  0.2308  0.1739  0.1576
    1W        W33854   0.788   8.894   2.784 -0.0528  0.1686 -0.2350
    1W        W33855  27.468  27.727   0.976 -0.2732 -0.0936  0.0827
    1W        W33856  14.023  11.143   9.675 -0.2491  0.1954  0.0081
    1W        W33857  25.592  28.388   1.531 -0.1378  0.0052  0.0353
    1W        W33858  19.737  24.788   1.010  0.0972  0.2716 -0.2911
    1W        W33859   7.059   7.620   2.397  0.0619  0.1019  0.3116
    1W        W33860  25.521   6.302   3.315  0.5030 -0.1176 -0.3904
    1W        W33861   4.865   1.422   8.190 -0.2716  0.0187  0.3221
    1W        W33862   8.666   1.962   8.697  0.1745 -0.2338  0.1807
    1W        W33863  11.894  28.524   2.240  0.0235  0.2382 -0.2166
    1W        W33864  17.709  14.389   8.877  0.0630  0.2907 -0.1534
    1W        W33865   6.284  13.956   2.803  0.1156  0.1380 -0.0098
    1W        W33866  11.560   5.954   9.278  0.0494  0.1360  0.3893
    1W        W33867   4.302  25.390   0.986 -0.2110  0.3205  0.2347
    1W        W33868   7.694  15.777   0.186 -0.0820  0.2417  0.4244
    1W        W33869  15.307  22.645   7.345  0.0608  0.0951 -0.0401
    1W        W33870   9.392  22.389   9.289  0.0504  0.2115 -0.1852
    1W        W33871  29.113   5.411   6.524 -0.0091 -0.0121  0.0960
    1W        W33872   4.490  23.281   9.011 -0.1934  0.2836 -0.0949
    1W        W33873  12.081   8.288   1.779  0.1801  0.4248  0.0861
    1W        W33874  15.318  10.425   8.850 -0.1201 -0.0604 -0.1638
    1W        W33875   3.431  19.929   6.817  0.0609  0.3224  0.2504
    1W        W33876   0.316   6.955   0.724  0.1656  0.0943  0.0053
    1W        W33877  14.848  13.254   0.225 -0.3810  0.2773  0.1456
    1W        W33878  19.053  22.905   2.918  0.0039 -0.1461 -0.1356
    1W        W33879  24.935  23.551   3.403 -0.0920  0.2412 -0.3850
    1W        W33880  11.623  28.229   9.036 -0.0658 -0.0796 -0.0115
    1W        W33881   4.539   1.116   2.272  0.0661  0.3956  0.0412
    1W        W33882  25.897  24.453   1.906 -0.0555 -0.1337  0.0529
    1W        W33883   7.960  28.023   2.262  0.4188 -0.0545 -0.0683
    1W        W33884  29.260  16.901   2.822 -0.2783 -0.4047  0.4529
    1W        W33885  26.512  18.417   8.025  0.1022  0.0651  0.0493
    1W        W33886  28.184   9.914   6.152 -0.0159  0.0521 -0.2364
    1W        W33887  12.923  25.952   0.755  0.1245  0.0348  0.3620
    1W        W33888  12.267  21.338   1.518  0.1070  0.0025 -0.1324
    1W        W33889  19.638   7.157   8.792 -0.1716 -0.2823 -0.2629
    1W        W33890   0.714  16.364   7.846  0.1468 -0.2677 -0.0476
    1W        W33891  21.673  28.686   0.918  0.1180  0.0202 -0.0437
    1W        W33892   3.995  20.615   0.025 -0.3109 -0.2155 -0.1305
    1W        W33893  25.756  12.114   0.738  0.0327  0.0382 -0.1018
    1W        W33894  26.427  22.922   3.429  0.0040  0.4372  0.0739
    1W        W33895   8.643   9.609   2.274 -0.0694 -0.1074  0.0911
    1W        W33896  10.582   9.698   9.665  0.1087  0.1090  0.4220
    1W        W33897  15.798   5.799   1.409 -0.0254  0.1363 -0.2465
    1W        W33898  29.073   3.380   6.136  0.0401 -0.0130 -0.0592
    1W        W33899  28.864   6.197   7.742 -0.1267  0.1043  0.1208
    1W        W33900   5.476  16.308   1.130  0.3220 -0.0784 -0.0304
    1W        W33901  27.666   3.509   0.434 -0.0966 -0.0340 -0.1671
    1W        W33902  22.757   7.488   0.601 -0.0707  0.2547 -0.3375
    1W        W33903   3.051   2.942   8.244 -0.2984 -0.0166  0.0019
    1W        W33904  21.665  13.917   1.415 -0.4820  0.2626  0.2452
    1W        W33905  23.906   9.774   0.873 -0.1592  0.3771 -0.0362
    1W        W33906   5.703  29.188   6.990 -0.3315 -0.3416  0.1259
    1W        W33907   1.604   2.280   0.512  0.3830  0.2728 -0.0764
    1W        W33908   0.182   9.472   8.639  0.1840 -0.2058 -0.0721
    1W        W33909  14.370   0.500   8.473  0.2150  0.0666  0.0657
    1W        W33910  12.050  24.254   9.587  0.2490 -0.0488 -0.0328
    1W        W33911   2.076  25.674   1.665 -0.1489  0.1602  0.2842
    1W        W33912  22.027   5.464   7.710  0.0172 -0.3643  0.2930
    1W        W33913   6.158  18.010   8.784 -0.0536 -0.1639  0.1935
    1W        W33914  23.363  24.716   6.723 -0.1062 -0.1935 -0.2517
    1W        W33915   0.782  25.039   3.469 -0.0809 -0.0608 -0.1295
    1W        W33916  13.703   9.940   3.078 -0.2759  0.0161 -0.2191
    1W        W33917  21.813  23.174   1.321  0.0238  0.2944 -0.1636
    1W        W33918  22.549   5.469   2.113  0.1548  0.0308  0.0222
    1W        W33919  11.066  26.820   2.679 -0.2089 -0.1103  0.0320
    1W        W33920   1.505   6.802   7.790 -0.2235  0.0696  0.1990
    1W        W33921  26.130  23.020   7.721 -0.0164  0.1854 -0.1723
    1W        W33922  18.537  18.670   0.247  0.2723 -0.0947 -0.0082
    1W        W33923  23.323   7.270   6.869 -0.0932  0.1341 -0.0822
    1W        W33924   1.609   9.404   9.203 -0.1386 -0.1441 -0.1656
    1W        W33925  12.610   2.451   0.308  0.0593 -0.0763 -0.0830
    1W        W33926  13.372  12.587   9.653  0.2423 -0.0249  0.2199
    1W        W33927  13.514  22.673   2.100  0.0592  0.4010  0.1368
    1W        W33928  19.812  24.658   3.370  0.0221  0.1763  0.1819
    1W        W33929  22.931  28.850   8.777 -0.1983 -0.0845  0.2595
    1W        W33930   7.807   2.985   0.763  0.0367 -0.1642  0.1901
    1W        W33931  21.232  22.528   1.837 -0.2069  0.3642 -0.0877
    1W        W33932  17.930  17.693   7.741 -0.0520  0.2788 -0.1792
    1W        W33933   2.262   6.513   1.677  0.1106  0.3659 -0.1907
    1W        W33934   9.685  23.987   8.647  0.0683 -0.0305  0.0647
    1W        W33935   5.710   9.645   7.189 -0.4071 -0.1571 -0.2589
    1W        W33936  27.910   3.483   7.970  0.1067 -0.1467  0.0534
    1W        W33937   3.203   3.489   1.910  0.2358 -0.0366 -0.2642
    1W        W33938  25.155   4.422   6.837  0.1861 -0.0973  0.0556
    1W        W33939  16.947  27.519   9.403 -0.0444  0.3151  0.0305
    1W        W33940  13.430  14.162   0.167  0.0153  0.0363  0.0546
    1W        W33941  14.787   0.022   1.217  0.0635 -0.3032  0.1120
    1W        W33942  18.002  10.028   0.227 -0.0733 -0.2936 -0.1900
    1W        W33943  15.197  23.793   7.892  0.0404 -0.1372 -0.0348
    1W        W33944   2.356   3.535   6.147  0.1753  0.0431  0.0020
    1W        W33945   6.280  12.611   6.541  0.1026  0.0335 -0.1170
    1W        W33946   4.573   5.444   8.232 -0.0250 -0.0387  0.1276
    1W        W33947   6.880  15.253   7.017  0.1647 -0.2345  0.0394
    1W        W33948   5.504   2.177   1.743  0.0185  0.1288  0.1278
    1W        W33949   6.692  19.762   6.612  0.0714  0.0521 -0.0601
    1W        W33950  19.870  19.443   7.612 -0.0995  0.2132  0.1569
    1W        W33951   4.098  23.095   8.709 -0.1354 -0.0974 -0.0244
    1W        W33952   2.686  21.709   2.070  0.3521  0.1808  0.1021
    1W        W33953   6.039   6.247   0.313  0.0506 -0.3274  0.0806
    1W        W33954  16.199  15.700   1.281  0.2500  0.0231  0.2057
    1W        W33955  20.189  23.298   7.680 -0.0532 -0.0364 -0.2132
    1W        W33956  26.910  17.310   1.668 -0.2755  0.1451 -0.1875
    1W        W33957  24.872   8.939   7.700 -0.0260 -0.0183 -0.1814
    1W        W33958  17.365  20.983   8.281  0.0046 -0.1841  0.2616
    1W        W33959  19.437  16.512   9.603  0.2751  0.0484  0.0854
    1W        W33960  12.541  24.259   8.337 -0.1705  0.6664 -0.1718
    1W        W33961  23.559  27.668   8.193  0.0948 -0.0460  0.2706
    1W        W33962  25.657  14.406   8.841 -0.1073 -0.0227 -0.0934
    1W        W33963   5.086   9.525   1.944 -0.0761 -0.0378  0.0929
    1W        W33964  22.242  16.163   7.043 -0.1695 -0.0263 -0.0518
    1W        W33965  20.467  28.291   9.102 -0.2103 -0.0066  0.2128
    1W        W33966   3.715  15.700   8.548 -0.1265  0.1140  0.2724
    1W        W33967  22.112  10.976   2.400 -0.2115  0.2940 -0.0692
    1W        W33968  12.995  13.231   8.359  0.3775  0.2776 -0.0156
    1W        W33969  15.510  16.948   0.924 -0.0532 -0.2346  0.1703
    1W        W33970  22.941   1.842   0.426 -0.1979 -0.3050 -0.0351
    1W        W33971  11.564   9.471   1.348  0.0150  0.0585  0.1154
    1W        W33972  18.632   0.930   2.264  0.3183 -0.1229 -0.0616
    1W        W33973  18.396   5.066   8.011 -0.2157 -0.1199  0.4858
    1W        W33974  27.762  14.861   0.603 -0.0599  0.3189 -0.2996
    1W        W33975  25.563  20.954   7.999  0.4057 -0.0502  0.2639
    1W        W33976  26.129   3.206   8.522 -0.3465 -0.0008  0.1313
    1W        W33977   7.653  16.469   8.678  0.2623 -0.2172 -0.1042
    1W        W33978   3.831  18.436   6.796  0.0911  0.0460 -0.0572
    1W        W33979  17.885   2.245   8.150  0.3016 -0.0042 -0.0131
    1W        W33980   8.892   5.232   3.893  0.0968  0.0937 -0.0580
    1W        W33981   5.678   2.503   8.603  0.1633 -0.0063 -0.1921
    1W        W33982  14.026  25.784   0.463 -0.1896  0.1659  0.1216
    1W        W33983   0.740  20.779   7.942  0.1458  0.2018 -0.0521
    1W        W33984  16.977  12.057   8.436 -0.1234 -0.0527 -0.0553
    1W        W33985  21.269   9.500   7.689  0.0009 -0.1091  0.0251
    1W        W33986  11.393   5.033   2.126  0.0236  0.0461 -0.2293
    1W        W33987  10.087   4.771   8.615 -0.1604 -0.2221  0.0107
    1W        W33988  26.209  23.786   6.894  0.1448 -0.0450 -0.3196
    1W        W33989   0.590  23.006   3.132 -0.0457 -0.1464  0.0408
    1W        W33990  20.070   1.958   6.262  0.2951  0.0380 -0.0123
    1W        W33991  15.857  11.607   0.416 -0.2667  0.0525 -0.0875
    1W        W33992  18.324   1.640   2.820 -0.4102  0.0027  0.2126
    1W        W33993  21.158  28.171   2.030 -0.0188 -0.0751 -0.0031
    1W        W33994  16.330  24.889   1.855  0.3500  0.0175  0.2383
    1W        W33995  24.542  21.777   7.661  0.0256  0.1039 -0.0471
    1W        W33996  27.111  21.738   8.719 -0.2977 -0.2927  0.1178
    1W        W33997  18.900   1.736   8.956 -0.3625  0.0587  0.2903
    1W        W33998  23.523  25.543   1.593  0.0241  0.1293 -0.0612
    1W        W33999  10.923   1.076   0.644  0.0905 -0.3232  0.0327
    1W        W34000  19.708  28.591   8.275 -0.0806  0.0080 -0.0195
    1W        W34001  15.294  22.423   8.476  0.1268 -0.0479  0.0627
    1W        W34002  25.284   9.042   8.396  0.1388 -0.1943  0.2873
    1W        W34003  21.673   5.021   6.996  0.0799  0.2952  0.0164
    1W        W34004  28.527  12.621   2.448  0.1325 -0.0854  0.1014
    1W        W34005  25.629  14.184   0.759  0.0743 -0.0738  0.1872
    1W        W34006  11.723  15.597   7.887 -0.2922 -0.2461  0.0432
    1W        W34007   6.808  15.402   7.534 -0.0128 -0.1231 -0.3942
    1W        W34008   3.981  24.945   1.818  0.0596 -0.1427  0.1558
    1W        W34009  10.225  21.197   7.175  0.1904  0.0576 -0.3132
    1W        W34010  20.216  26.136   9.463 -0.0345  0.0024 -0.2185
    1W        W34011  14.363  25.439   0.587  0.1121  0.1894  0.0545
    1W        W34012  25.655  13.073   5.548 -0.1913  0.2063  0.2140
    1W        W34013  17.405   2.985   8.335 -0.4232 -0.1679 -0.2059
    1W        W34014  10.884  19.604   9.094 -0.2025 -0.0117  0.1945
    1W        W34015   8.468   6.957   0.297 -0.1229 -0.3015 -0.0648
    1W        W34016  14.470   4.561   0.183  0.0086 -0.0304  0.2596
    1W        W34017  25.411  17.628   0.632  0.1198 -0.4204 -0.3884
    1W        W34018  19.506  10.820   0.835  0.2294 -0.1316  0.2347
    1W        W34019  12.818   9.878   1.109 -0.1069  0.1819  0.1139
    1W        W34020  28.961  27.808   0.575  0.0410 -0.1816 -0.0190
    1W        W34021   0.962  23.460   1.413  0.1716  0.0695  0.2973
    1W        W34022   1.156   5.924   6.906  0.1514 -0.1855 -0.1369
    1W        W34023  18.467  25.523   2.976  0.0037  0.0605 -0.0009
    1W        W34024  12.807   0.981   0.293 -0.3181  0.1261  0.1924
    1W        W34025   2.798   5.264   6.958 -0.2612  0.1057  0.1765
    1W        W34026  25.570   9.022   1.603 -0.1318  0.1091  0.0820
    1W        W34027  19.312  28.267   1.850 -0.0169 -0.1709  0.0363
    1W        W34028   9.211   1.828   0.057 -0.2051  0.1378  0.2462
    1W        W34029  20.283  29.146   2.472  0.0866  0.2402 -0.0230
    1W        W34030  19.301  17.553   1.539 -0.2193  0.1708 -0.2215
    1W        W34031   1.076  22.147   8.867  0.1846 -0.1425 -0.3067
    1W        W34032   0.628  10.701   2.858 -0.1002 -0.2503  0.1350
    1W        W34033  25.990   3.647   0.619 -0.2153 -0.4570  0.1620
    1W        W34034  23.750  27.474   8.743 -0.0975 -0.1521 -0.0814
    1W        W34035   2.765   8.270   8.804  0.0254  0.1555  0.0482
    1W        W34036   1.555  18.967   9.376  0.0161  0.0158 -0.0338
    1W        W34037   2.398  27.555   0.371 -0.2134  0.1976  0.0027
    1W        W34038  10.644  28.916   1.395  0.2241 -0.1291  0.2125
    1W        W34039  14.599   3.316   1.644  0.0727  0.0445  0.0542
    1W        W34040  20.496   8.417   7.838 -0.0529  0.1801  0.0759
    1W        W34041   5.463  19.105   1.007  0.3315  0.5484  0.1700
    1W        W34042   8.399   6.059   1.608 -0.2989  0.2829 -0.0766
    1W        W34043  27.182  17.204   2.675 -0.0763  0.1285 -0.3457
    1W        W34044  16.487  27.735   3.715 -0.1163  0.1561 -0.1871
    1W        W34045  10.593  15.927   8.011  0.1131 -0.0922  0.1470
    1W        W34046   7.951   5.486   8.059  0.1228  0.0256 -0.1169
    1W        W34047  27.246   1.393   1.038 -0.1891  0.1171 -0.0341
    1W        W34048   4.832  12.679   0.499  0.0311 -0.2536  0.0743
    1W        W34049  16.613  26.814   0.635  0.2458  0.2323  0.1819
    1W        W34050  22.953  11.662   1.617 -0.0638  0.1204 -0.1489
    1W        W34051  18.134  29.283   7.714 -0.0333 -0.1132 -0.2732
    1W        W34052  21.093   1.518   0.991  0.1922  0.3125 -0.1975
    1W        W34053   9.545  22.046   0.095 -0.0353 -0.3388  0.0181
    1W        W34054  21.370  29.202   6.978 -0.0823  0.0118  0.1781
    1W        W34055  17.531  25.800   0.672  0.4554 -0.0496 -0.1306
    1W        W34056  10.415  25.830   2.219  0.0194 -0.1884 -0.1600
    1W        W34057   5.880   8.180   7.215 -0.0438  0.1332  0.0081
    1W        W34058  20.181   1.819   1.115 -0.0829  0.2441 -0.4034
    1W        W34059   5.241  28.615   9.195 -0.0558  0.0914 -0.1008
    1W        W34060   1.750   9.290   7.301  0.2245  0.0816  0.0258
    1W        W34061  23.970   5.257   8.857 -0.1502 -0.0048 -0.3961
    1W        W34062   8.266  11.222   2.027  0.2671 -0.1705  0.0500
    1W        W34063   2.734  19.166   8.788 -0.0559 -0.3493 -0.0632
    1W        W34064  26.619  25.246   8.147 -0.1689  0.0152 -0.0436
    1W        W34065  27.563  20.638   0.380  0.0069 -0.1379  0.1633
    1W        W34066   9.798  11.201   1.262  0.0919 -0.0722 -0.3620
    1W        W34067  25.316   3.553   9.493  0.1774  0.4654 -0.1050
    1W        W34068   3.064   6.827   9.169  0.2518  0.1629 -0.1585
    1W        W34069  17.609   1.985   7.684 -0.1955  0.1071  0.0412
    1W        W34070  20.668  18.324   2.464 -0.1573  0.1233  0.1201
    1W        W34071  26.180  17.493   1.851  0.0734 -0.3220  0.0069
    1W        W34072  22.012  25.752   9.489 -0.1557  0.2265 -0.2458
    1W        W34073   3.933  13.482   1.040 -0.4294 -0.0770  0.3044
    1W        W34074  14.237  14.557   1.439 -0.1770 -0.0732  0.3156
    1W        W34075   8.176   7.577   8.225  0.0746  0.2466 -0.1836
    1W        W34076  11.451   9.362   0.125 -0.1000  0.0698 -0.0479
    1W        W34077  13.661  12.137   9.578 -0.0692 -0.2290 -0.1264
    1W        W34078  23.242  29.190   2.880 -0.3162  0.1469 -0.0028
    1W        W34079   0.473  11.822   5.647 -0.0558 -0.0659 -0.0162
    1W        W34080  22.111  22.721   6.564  0.0273 -0.2501  0.0548
    1W        W34081   5.135   0.713   2.037 -0.0283 -0.1484  0.4093
    1W        W34082   3.752  21.605   7.048  0.1553  0.2312  0.0026
    1W        W34083   4.087  12.742   9.647 -0.2182 -0.3009 -0.0764
    1W        W34084  15.100  12.045   0.789 -0.2595 -0.1993  0.0540
    1W        W34085  21.588  14.267   2.139  0.0796 -0.0884  0.3053
    1W        W34086   8.892  16.493   1.278  0.0861  0.5092 -0.0623
    1W        W34087   4.549   4.939   0.349  0.0353 -0.0924  0.1053
    1W        W34088  22.077  24.858   2.329  0.1293  0.2488  0.0642
    1W        W34089  14.778  21.223   0.551 -0.2833  0.0723 -0.0848
    1W        W34090   2.899   0.458   1.252  0.0314 -0.0279 -0.3446
    1W        W34091  27.926  29.216   8.510 -0.0626  0.1957  0.0780
    1W        W34092   2.588  14.476   0.316  0.2764 -0.2303 -0.1709
    1W        W34093   7.400  12.327   2.593  0.1037  0.0506 -0.2852
    1W        W34094  27.810  11.675   9.541  0.1747  0.0701  0.1542
    1W        W34095  24.933  18.479   1.119 -0.2590 -0.0421  0.0310
    1W        W34096   1.447  22.884   0.413 -0.2833 -0.0861  0.1842
    1W        W34097  26.775  18.131   8.889  0.1056 -0.4195 -0.0764
    1W        W34098  14.168   7.268   2.269  0.0266 -0.2805 -0.0319
    1W        W34099  26.737  24.097   8.124 -0.1174 -0.2183 -0.1579
    1W        W34100  14.837  22.253   8.528  0.0321 -0.3580 -0.3032
    1W        W34101   0.447  21.882   9.489 -0.1602  0.2928 -0.1623
    1W        W34102  22.298  11.456   2.269  0.1546  0.0121 -0.0165
    1W        W34103  22.271  13.189   7.106  0.2506 -0.0725  0.4555
    1W        W34104  22.688  14.949   0.325 -0.1875  0.1035 -0.0260
    1W        W34105  25.361   9.097   7.588  0.1361 -0.3852  0.0940
    1W        W34106   0.596   1.567   0.041 -0.0399  0.4584  0.0982
    1W        W34107  19.506  13.911   7.679  0.3873  0.0753  0.0556
    1W        W34108  14.843  22.172   1.608  0.1469  0.2396 -0.0089
    1W        W34109   8.148   2.588   2.186  0.0634 -0.0112 -0.0017
    1W        W34110  23.782  14.446   6.499  0.0462 -0.1990 -0.0858
    1W        W34111   7.979   8.556   0.651 -0.0984 -0.0350  0.0201
    1W        W34112   7.465  13.699   7.807 -0.0116  0.0323 -0.2266
    1W        W34113   6.738   9.594   0.187  0.0379 -0.1497 -0.1867
    1W        W34114   4.820  24.572   8.280  0.0539  0.3020  0.0363
    1W        W34115  10.726  16.687   7.340 -0.0968  0.4744  0.1858
    1W        W34116  13.864  17.968   1.872  0.1714  0.2803 -0.2100
    1W        W34117  23.525  10.374   2.368  0.2536 -0.0165  0.2103
    1W        W34118  12.530   1.077   7.892 -0.0512 -0.0893 -0.1629
    1W        W34119   6.656  10.359   2.616 -0.2397  0.1952 -0.0489
    1W        W34120  19.119  20.450   3.751 -0.1181 -0.0994 -0.1049
    1W        W34121  17.003  25.991   8.691  0.0000  0.2245 -0.0049
    1W        W34122   2.999  19.326   7.418  0.0680  0.1389  0.2981
    1W        W34123  29.053  13.189   9.661 -0.0552 -0.1974 -0.0548
    1W        W34124   6.910  11.108   6.372 -0.2282  0.2610 -0.0858
    1W        W34125   5.364  20.758   6.427 -0.0648 -0.2005  0.0243
    1W        W34126  15.286  28.257   7.746 -0.0417 -0.0849  0.0479
    1W        W34127  15.794  12.097   0.360 -0.2060  0.0877  0.1719
    1W        W34128  10.268  16.799   1.993  0.1502  0.0511  0.0580
    1W        W34129  27.753  16.528   8.020  0.0335 -0.0416  0.0264
    1W        W34130   3.673  21.223   2.188 -0.1950  0.2230 -0.0653
    1W        W34131  24.649  11.676   1.510  0.1104 -0.2215  0.2024
    1W        W34132  19.208   3.909   0.583 -0.2577 -0.2692  0.0923
    1W        W34133  29.223  11.478   7.694  0.0653 -0.0672  0.1575
    1W        W34134   0.445  18.309   1.339 -0.3103 -0.0873 -0.0240
    1W        W34135   3.818   4.544   7.551 -0.2402 -0.5297 -0.1007
    1W        W34136  10.245   2.123   8.300 -0.2866 -0.0879 -0.1387
    1W        W34137  17.109  11.121   1.535  0.3217  0.1655  0.1415
    1W        W34138   3.774   6.845   7.052 -0.1062 -0.2682  0.3384
    1W        W34139   4.274  25.791   9.585  0.4849  0.1003 -0.0808
    1W        W34140  19.682  26.412   7.778 -0.3720  0.1373  0.4339
    1W        W34141  21.799   0.869   6.557 -0.0710  0.1342  0.2438
    1W        W34142   1.477  16.342   7.184  0.1715 -0.2074 -0.2114
    1W        W34143  22.047  22.035   8.767 -0.0266  0.2374  0.0712
    1W        W34144  29.260  26.680   2.261 -0.0913  0.0357  0.3189
    1W        W34145  13.685  14.044   7.461  0.2690  0.1884  0.1024
    1W        W34146   0.004  22.158   2.816 -0.0578  0.1792 -0.2480
    1W        W34147   8.084  12.613   2.049 -0.0552 -0.0461 -0.3459
    1W        W34148  19.572  14.786   9.447 -0.0723  0.3196 -0.1074
    1W        W34149  19.902  24.661   2.816 -0.4363 -0.1693 -0.0853
    1W        W34150  27.820  23.476   8.133 -0.1984  0.0031 -0.1098
    1W        W34151  15.185  24.428   9.319  0.1884 -0.1645 -0.0870
    1W        W34152  22.320  14.076   0.297  0.0491  0.4644 -0.1545
    1W        W34153  21.938   8.321   7.469 -0.0546 -0.0953  0.1907
    1W        W34154  22.933  24.808   9.453  0.0802  0.0821 -0.1371
    1W        W34155  17.198  16.964   1.163 -0.3287 -0.0764 -0.1947
    1W        W34156  23.833   4.265   2.071 -0.0038 -0.1997  0.2281
    1W        W34157  15.000  22.759   2.094 -0.0876  0.1545  0.0753
    1W        W34158  25.330  10.334   1.548  0.0834  0.2438  0.3140
    1W        W34159  20.983  15.754   2.062 -0.3738  0.0322 -0.2591
    1W        W34160   0.566   1.089   6.630 -0.2745 -0.1223  0.3530
    1W        W34161  24.490   6.868   7.499 -0.1854  0.0856 -0.2570
    1W        W34162  12.428   5.966   7.064 -0.0748 -0.2147 -0.3511
    1W        W34163  29.192   2.317   9.257 -0.1247  0.2057 -0.3076
    1W        W34164   5.444  21.511   0.272  0.1458  0.1014 -0.2456
    1W        W34165   0.938   2.796   3.104  0.2588 -0.0978 -0.0556
    1W        W34166  28.012   9.490   6.487 -0.2461  0.1192  0.1257
    1W        W34167  12.258  22.940   7.944 -0.1098 -0.1916  0.1266
    1W        W34168  16.792  13.867   2.881  0.3169  0.2100  0.2792
    1W        W34169  23.814  20.741   9.211 -0.0380  0.1575 -0.0179
    1W        W34170   0.559  12.304   1.268 -0.1168  0.0459  0.1476
    1W        W34171  21.106  10.705   1.237  0.1824  0.0870 -0.0713
    1W        W34172  18.274  25.685   7.879  0.0782 -0.0232  0.1443
    1W        W34173  18.759  19.452   1.957  0.1166 -0.0157  0.2183
    1W        W34174   9.629  11.712   7.496 -0.1702 -0.0825  0.1257
    1W        W34175  20.505  22.991   7.910 -0.1411  0.1027 -0.1330
    1W        W34176  22.986  26.039   7.643 -0.1245  0.0643 -0.2660
    1W        W34177   7.597  14.965   8.632 -0.1186 -0.0084 -0.2736
    1W        W34178   3.986  17.689   2.903 -0.0723  0.0213  0.3588
    1W        W34179  11.709  25.459   1.976  0.1731 -0.2257 -0.0284
    1W        W34180  20.863   3.551   2.028 -0.1549 -0.0313  0.1330
    1W        W34181  10.739  21.640   2.663  0.2106  0.1894 -0.2209
    1W        W34182   7.183  12.469   7.247 -0.0287  0.2001  0.4434
    1W        W34183  10.861   8.054   2.299  0.0258 -0.1204  0.0077
    1W        W34184  24.414  20.179   8.088  0.1018  0.0294  0.0427
    1W        W34185  16.302   6.526   0.295  0.2500  0.0699  0.0213
    1W        W34186   1.640  16.475   6.694 -0.2393  0.0465  0.1747
    1W        W34187  13.093  25.421   8.481  0.5650  0.1354  0.1326
    1W        W34188  23.846   6.248   1.751  0.0522 -0.0827  0.1101
    1W        W34189  28.949  20.590   9.025 -0.0114  0.0569 -0.0986
    1W        W34190   9.057  11.427   0.204  0.0886  0.0341 -0.0626
    1W        W34191   5.033  10.901   2.728 -0.2446  0.0726 -0.3496
    1W        W34192  16.223   0.150   7.231  0.1661  0.1970  0.2111
    1W        W34193  20.774   8.666   0.946  0.2267  0.0316  0.1686
    1W        W34194  12.338  18.963   8.057  0.1165 -0.0306 -0.3297
    1W        W34195   9.046  23.450   2.307 -0.2324 -0.2880  0.0040
    1W        W34196  16.233  24.875   7.466  0.2253 -0.4444 -0.1858
    1W        W34197  28.858  23.421   1.909  0.0794 -0.4089 -0.1975
    1W        W34198   9.050   2.216   0.352  0.0573  0.1675  0.0860
    1W        W34199   4.707  12.072   9.656  0.1289  0.2085 -0.2243
    1W        W34200  15.342  20.316   8.957  0.0621 -0.2455 -0.1029
    1W        W34201   7.826   9.751   2.831 -0.0898 -0.0395 -0.0518
    1W        W34202  23.587  28.707   6.814  0.0595  0.1442  0.1963
    1W        W34203  23.690  10.204   9.216 -0.0017 -0.2310 -0.2424
    1W        W34204  23.086  15.476   6.434 -0.1145 -0.0173 -0.0292
    1W        W34205  19.869  13.931   7.367  0.0775 -0.0837 -0.0155
    1W        W34206   8.165  21.760   7.686 -0.0738  0.2980 -0.2783
    1W        W34207  21.160   7.188   7.123  0.0115 -0.3184 -0.0366
    1W        W34208   0.461   7.579   0.992  0.1307 -0.1332  0.1182
    1W        W34209   8.190  26.530   7.916  0.1633  0.1424 -0.0378
    1W        W34210   3.116  19.964   2.728 -0.1481 -0.0419  0.3182
    1W        W34211  11.202  15.667   1.731  0.0384  0.1531 -0.0129
    1W        W34212   2.613   2.828   7.212  0.2543 -0.0006 -0.0882
    1W        W34213  27.178  10.403   0.896 -0.0388 -0.2041  0.0785
    1W        W34214   4.487   9.052   6.405  0.2512  0.1148 -0.2204
    1W        W34215  21.746  28.904   7.839 -0.0818  0.1214  0.4511
    1W        W34216  13.495   7.139   7.501 -0.2672 -0.4778  0.3373
    1W        W34217   8.582  23.421   9.501 -0.1771  0.3373  0.2054
    1W        W34218  24.704  25.420   2.397  0.2474 -0.0999 -0.3471
    1W        W34219  25.488   6.427   2.829  0.0145 -0.1997 -0.0502
    1W        W34220  28.701  23.676   8.197 -0.2691 -0.0389 -0.0108
    1W        W34221  22.768  20.055   7.606 -0.2009 -0.0219 -0.0523
    1W        W34222   9.211  23.681   1.910 -0.2319 -0.0114 -0.1161
    1W        W34223  10.744  14.715   1.767  0.0367  0.0133  0.1236
    1W        W34224  25.375  25.587   7.010 -0.0833  0.1987  0.4745
    1W        W34225  28.655  16.371   7.189 -0.1472  0.1196 -0.0525
    1W        W34226  22.244  24.683   1.893  0.3563  0.1296  0.0880
    1W        W34227  23.392  11.001   9.358  0.1977 -0.0186 -0.3326
    1W        W34228   2.305  26.691   8.131  0.2247 -0.1856 -0.0270
    1W        W34229   3.797  20.076   7.219 -0.0121 -0.2737 -0.1257
    1W        W34230  28.695  11.257   9.353 -0.0280  0.1107 -0.3541
    1W        W34231   3.097   6.689   1.891 -0.2223 -0.4076 -0.0804
    1W        W34232  24.899  20.741   3.496  0.1675 -0.3291 -0.0177
    1W        W34233  12.301  13.013   8.221 -0.3317 -0.2945  0.0499
    1W        W34234  17.565   0.661   1.155 -0.0385 -0.0677 -0.1797
    1W        W34235   5.854   1.403   8.580 -0.0107 -0.4710  0.1845
    1W        W34236  10.116   5.933   1.676 -0.2950  0.2045  0.0276
    1W        W34237   1.607   4.134   9.021 -0.1478 -0.0122  0.0727
    1W        W34238   3.425  16.270   0.919  0.3310 -0.2106  0.1280
    1W        W34239  19.759  24.385   7.713 -0.2248  0.3316  0.0057
    1W        W34240   8.696   6.725   3.480 -0.0302  0.1200  0.1070
    1W        W34241  16.408  17.184   8.241 -0.0114 -0.1002 -0.0564
    1W        W34242   8.524  18.214   1.460 -0.1887 -0.1240 -0.1776
    1W        W34243  23.530  21.372   0.274  0.1587  0.0449  0.2421
    1W        W34244   0.796   8.477   0.516  0.1866 -0.0079 -0.0708
    1W        W34245  25.147   2.951   1.219 -0.2300  0.1788 -0.4367
    1W        W34246  28.240   2.710   2.289 -0.0300 -0.2250  0.2541
    1W        W34247  17.871   5.955   2.479 -0.2659  0.0592  0.0365
    1W        W34248   3.871   7.259   6.879  0.0111  0.0595 -0.1599
    1W        W34249  14.429   5.617   1.050  0.1193 -0.0509 -0.0664
    1W        W34250   3.453  26.294   6.718  0.2685 -0.2361  0.0416
    1W        W34251  19.826  25.137   8.797 -0.2627 -0.4644  0.0091
    1W        W34252  23.755   0.744   9.598 -0.0753 -0.0347  0.1008
    1W        W34253   5.102  16.151   2.589 -0.1887  0.2331 -0.1364
    1W        W34254  21.773  18.034   7.976  0.1460  0.0287 -0.3986
    1W        W34255  28.386  24.425   9.670  0.1343  0.0402 -0.0179
    1W        W34256  13.428   5.891   2.301 -0.1513 -0.0588 -0.0825
    1W        W34257  14.587  15.383   9.635  0.3865 -0.0432 -0.0883
    1W        W34258  10.503   5.724   8.946  0.1517  0.0950 -0.0870
    1W        W34259  22.714   4.093   6.141  0.0918  0.0003  0.2392
    1W        W34260  25.366   4.463   1.060 -0.0344 -0.0685 -0.1745
    1W        W34261   2.701   4.794   7.682  0.1318 -0.3796 -0.0106
    1W        W34262  12.244  28.508   2.779  0.0297  0.1259  0.2080
    1W        W34263  27.251  17.767   8.187  0.2978  0.2734  0.0285
    1W        W34264  26.251   4.121   2.236 -0.0327 -0.1967  0.1043
    1W        W34265  26.016  27.488   8.326 -0.0486  0.0730  0.1166
    1W        W34266   9.865  21.992   7.683  0.0202  0.0327  0.1682
    1W        W34267  23.157   8.846   8.872 -0.0488  0.2057 -0.1113
    1W        W34268  26.657   9.274   2.368  0.1301  0.0182  0.1488
    1W        W34269   3.727   4.781   9.607 -0.1341 -0.3779 -0.1373
    1W        W34270   0.912  15.386   8.972  0.0961 -0.2858  0.0191
    1W        W34271  20.897  14.878   8.491 -0.1436  0.0278 -0.0742
    1W        W34272  18.156  12.998   0.001  0.2118 -0.1657  0.1034
    1W        W34273  17.504   1.542   2.629  0.0115 -0.0471 -0.0881
    1W        W34274   7.472  18.330   1.677 -0.0776 -0.0873  0.1414
    1W        W34275  13.680  13.028   8.938  0.0609 -0.0042  0.0564
    1W        W34276  20.673   6.109   8.582 -0.1035  0.0565 -0.1483
    1W        W34277  26.395   4.984   8.188 -0.1701  0.0414 -0.2928
    1W        W34278  28.323   6.266   9.110 -0.2096 -0.2179 -0.1222
    1W        W34279  21.355   5.404   0.784  0.2428 -0.1941  0.0285
    1W        W34280   8.496  17.118   6.591 -0.0224  0.0472  0.3328
    1W        W34281   4.120  29.055   6.262  0.2851  0.1306  0.2558
    1W        W34282   6.771   9.165   9.648  0.2521 -0.0864  0.2393
    1W        W34283   6.244  18.802   0.795  0.2097 -0.3424  0.1271
    1W        W34284  26.387  13.185   8.360  0.2417 -0.0543  0.0415
    1W        W34285  24.358  24.376   9.530  0.0125 -0.2052  0.1297
    1W        W34286  14.909  12.275   7.586  0.0629 -0.3355  0.0327
    1W        W34287   4.595  23.108   2.447  0.2298  0.0949 -0.1771
    1W        W34288  23.953   2.790   1.726 -0.1477  0.0277 -0.0577
    1W        W34289   7.385  20.255   6.552  0.1608 -0.3120  0.2874
    1W        W34290  27.215  21.148   9.342  0.1775  0.1709 -0.0631
    1W        W34291   7.702   7.339   6.508 -0.0571  0.0048 -0.1682
    1W        W34292  23.366   6.222   1.013 -0.0195 -0.1205  0.1087
    1W        W34293  21.133   7.906   1.251 -0.0470 -0.2837  0.1292
    1W        W34294  26.132   5.622   5.505 -0.2723  0.2004  0.4379
    1W        W34295  13.172   4.163   2.668 -0.1734 -0.2672  0.1038
    1W        W34296   8.650  15.791   0.852 -0.1895  0.1550  0.0491
    1W        W34297  12.833  19.538   0.310  0.0599  0.0476 -0.0735
    1W        W34298  28.199  15.214   0.782 -0.2801  0.1078  0.3483
    1W        W34299  19.599   8.107   7.447 -0.1437  0.0227  0.1565
    1W        W34300  27.347  13.453   2.552 -0.2580  0.2950  0.0222
    1W        W34301  21.481   2.332   9.292 -0.3443  0.0848  0.1797
    1W        W34302  27.645  10.912   8.401  0.2986 -0.2259  0.0402
    1W        W34303  11.629   6.938   2.262  0.0956 -0.1218  0.1180
    1W        W34304  16.221  25.594   0.681  0.1791 -0.0165 -0.0614
    1W        W34305  19.284   7.179   0.830  0.0774  0.5241  0.4186
    1W        W34306   1.777  21.088   0.691 -0.0101  0.2785  0.2118
    1W        W34307  24.648   5.068   6.715 -0.1243  0.4715  0.0774
    1W        W34308   2.117  19.988   6.539 -0.3150  0.2485  0.1634
    1W        W34309  28.748   3.513   8.029  0.1762  0.0901 -0.2439
    1W        W34310  22.799  25.521   7.479  0.0826  0.1943 -0.1270
    1W        W34311  20.145  26.938   0.768 -0.1604  0.0642  0.0929
    1W        W34312   0.955  28.768   2.540  0.0348 -0.0089  0.1684
    1W        W34313   0.426  24.547   0.711  0.0961 -0.2702  0.3205
    1W        W34314  14.185  14.398   7.632  0.2455  0.0361 -0.1391
    1W        W34315  21.719  12.010   1.668 -0.0632 -0.3235 -0.0142
    1W        W34316  15.409   1.586   2.884  0.0777  0.1141 -0.1836
    1W        W34317  22.180  28.245   6.556 -0.0193 -0.0503  0.2317
    1W        W34318  11.604  19.434   6.624  0.2582  0.1420 -0.0526
    1W        W34319   9.549  21.098   1.448  0.1101  0.2016 -0.2069
    1W        W34320   7.181   8.491   1.044 -0.2964  0.2418 -0.1104
    1W        W34321  26.137  12.495   6.932  0.0292  0.0281 -0.2040
    1W        W34322  10.332  15.747   0.441  0.1324 -0.1084  0.4243
    1W        W34323   8.068  22.729   9.525 -0.0718  0.0290  0.0522
    1W        W34324   0.852  18.521   9.063  0.0498 -0.3249  0.1343
    1W        W34325  13.589  21.581   7.100 -0.3009  0.0444  0.0754
    1W        W34326   8.351  13.215   9.357  0.1028  0.0240 -0.2016
    1W        W34327   8.896   9.462   0.988  0.0166 -0.2157 -0.1836
    1W        W34328  11.157  14.834   1.466 -0.0520 -0.0973  0.0234
    1W        W34329   1.134  14.805   9.209 -0.1463  0.2320  0.2109
    1W        W34330  13.892  12.584   8.747  0.0544 -0.4144 -0.0023
    1W        W34331   3.329   2.911   1.751 -0.0560  0.2949 -0.1241
    1W        W34332   7.067  20.239   5.715  0.0380 -0.1054 -0.2415
    1W        W34333   6.721  28.771   3.583 -0.0183 -0.0575 -0.1277
    1W        W34334   1.415  11.849   0.677  0.0830 -0.0525 -0.1021
    1W        W34335  28.406  28.122   1.395  0.2214  0.2770  0.1830
    1W        W34336  23.784   9.338   1.161  0.1741  0.4045  0.2396
    1W        W34337  20.324   1.531   6.324 -0.1467 -0.1449  0.3318
    1W        W34338   5.767   3.331   9.195  0.1078  0.1961  0.0564
    1W        W34339   0.897   6.595   8.999 -0.0294  0.2975 -0.2388
    1W        W34340  26.763  12.728   1.284 -0.1734 -0.0081 -0.3930
    1W        W34341  25.334  21.658   1.622  0.0659 -0.1752  0.0633
    1W        W34342  21.661   0.778   1.722  0.0268 -0.0345  0.1235
    1W        W34343  19.469  27.429   7.659  0.1096 -0.0138  0.0532
    1W        W34344  21.045   7.542   7.566  0.1646  0.1134 -0.1737
    1W        W34345  21.321   6.787   1.360 -0.1041  0.0516  0.3066
    1W        W34346  15.988  11.272   0.006 -0.0870  0.0087 -0.0714
    1W        W34347  18.120  19.486   9.206 -0.0354 -0.0434 -0.2067
    1W        W34348   1.309  13.791   2.371  0.0242 -0.3048  0.2456
    1W        W34349  14.229   6.866   8.229 -0.0832  0.2807 -0.2178
    1W        W34350  27.857  28.603   9.007  0.3251  0.0023  0.2319
    1W        W34351  27.265  24.349   7.226 -0.0352  0.1215 -0.0029
    1W        W34352  26.106  21.875   6.897  0.1281  0.0460 -0.1694
    1W        W34353  16.510   2.115   9.453  0.1708 -0.0170 -0.2252
    1W        W34354  11.868  29.209   0.382  0.1481 -0.0751 -0.2036
    1W        W34355  24.194   8.733   8.494  0.0670  0.1732  0.1601
    1W        W34356  27.588   3.812   7.027  0.0182  0.0711 -0.0324
    1W        W34357  11.694  25.459   9.312 -0.1588  0.1165  0.0701
    1W        W34358   7.102   7.327   1.826  0.2673  0.1531  0.3369
    1W        W34359   6.965  10.178   7.902 -0.1412  0.1043  0.2081
    1W        W34360   0.041  17.493   1.511  0.1837 -0.0086 -0.3761
    1W        W34361  23.729  19.766   9.502 -0.1627  0.1421 -0.0809
    1W        W34362  27.012  12.700   7.467 -0.2894 -0.1407 -0.3575
    1W        W34363  14.211  11.544   0.261  0.1799 -0.0811 -0.2238
    1W        W34364   1.292  10.286   8.270 -0.2398  0.0735  0.0412
    1W        W34365  29.014   5.632   9.292 -0.0869 -0.2023  0.3855
    1W        W34366  15.785  27.460   2.087  0.1497 -0.1870 -0.1704
    1W        W34367  18.174  28.273   1.426  0.0246 -0.1677 -0.1900
    1W        W34368  16.788  15.670   0.103 -0.1698  0.1795  0.3155
    1W        W34369  10.586  10.840   1.435  0.0522  0.0687  0.3097
    1W        W34370   6.269   9.478   6.989  0.0758  0.0807 -0.1026
    1W        W34371  25.376   9.581   8.992 -0.2097  0.1415  0.0995
    1W        W34372  13.089  25.847   3.236  0.0986  0.1902  0.0115
    1W        W34373  24.933   6.476   8.680  0.0229 -0.2279 -0.2643
    1W        W34374   4.306   3.816   7.326  0.0336  0.2172 -0.0108
    1W        W34375  12.712  12.869   7.951  0.1147 -0.3591  0.0754
    1W        W34376  13.748   7.884   1.247  0.2727  0.0891 -0.2189
    1W        W34377  15.309  23.630   3.292 -0.0398  0.2080  0.1457
    1W        W34378   7.608  13.360   1.141 -0.0150  0.0932 -0.2653
    1W        W34379  11.946  21.166   2.607 -0.0761 -0.0589  0.2022
    1W        W34380   6.033  27.402   7.638 -0.0265 -0.2387 -0.0204
    1W        W34381  14.658  19.595   1.623  0.3387  0.1814 -0.1504
    1W        W34382   6.719  12.389   1.660  0.3498  0.0453 -0.0678
    1W        W34383  26.289  19.213   6.020 -0.0182 -0.3071 -0.2455
    1W        W34384  28.604  23.894   9.244 -0.1027  0.1782 -0.2368
    1W        W34385  28.309  21.063   2.376 -0.3655 -0.1133 -0.0447
    1W        W34386   0.911   9.408   6.100 -0.2531  0.0180  0.0493
    1W        W34387  21.585  27.363   0.297 -0.1422 -0.2253  0.2535
    1W        W34388  17.701  14.589   1.480 -0.2289 -0.1251  0.3233
    1W        W34389   8.419  27.675   1.417  0.2988 -0.0779 -0.3941
    1W        W34390   6.881  29.002   3.085  0.2152 -0.3310  0.3428
    1W        W34391  16.681  19.908   8.260  0.0891 -0.4517  0.0181
    1W        W34392  14.608  10.489   1.227  0.0155  0.1085  0.0176
    1W        W34393  25.371   6.043   8.470  0.0706 -0.2282 -0.1183
    1W        W34394  26.600   4.206   0.501 -0.2482 -0.1070 -0.0150
    1W        W34395  16.177  25.887   7.263  0.1805  0.1551 -0.0052
    1W        W34396  23.410  21.034   8.017  0.0525  0.0002  0.0156
    1W        W34397  19.549   2.557   6.200 -0.1731 -0.0095  0.5075
    1W        W34398  16.065  20.643   8.672  0.0142 -0.1021 -0.2229
    1W        W34399  28.018   7.925   2.522 -0.1694  0.0342  0.0503
    1W        W34400  13.353  19.818   7.816  0.1561  0.4320  0.1699
    1W        W34401  11.020   5.727   1.054  0.3136  0.2614  0.1287
    1W        W34402  17.383  10.365   0.897  0.2790  0.1189  0.0171
    1W        W34403  14.863  18.055   8.374  0.0156  0.2014 -0.0500
    1W        W34404  15.518  28.616   8.017  0.3636 -0.1440 -0.2159
    1W        W34405  14.186  16.492   7.962 -0.0889  0.4650  0.1391
    1W        W34406  22.967   6.577   7.401  0.0881  0.0744 -0.0199
    1W        W34407  20.728   9.360   1.636  0.1554  0.2466 -0.1986
    1W        W34408   2.693  20.495   7.076 -0.1501  0.0071 -0.1635
    1W        W34409   1.355  22.736   8.140 -0.2568  0.3741 -0.1136
    1W        W34410  14.942   0.570   9.502 -0.0874 -0.1757  0.1899
    1W        W34411  12.224  23.977   2.072 -0.0578  0.2184  0.1387
    1W        W34412  18.178   2.321   7.136  0.1199 -0.1203  0.0026
    1W        W34413  29.103  24.356   2.023 -0.3056  0.0569  0.2118
    1W        W34414  27.095  21.215   7.011  0.0574 -0.2203 -0.2257
    1W        W34415  24.440  13.803   5.997  0.3561  0.0058  0.0788
    1W        W34416  20.040  10.666   0.751 -0.1896  0.0380  0.0062
    1W        W34417   2.568  15.322   0.845 -0.1617  0.1468  0.0587
    1W        W34418   6.836  26.057   1.507  0.0693  0.2383 -0.1679
    1W        W34419  14.434  29.358   8.703 -0.1975 -0.3133 -0.3053
    1W        W34420  22.724  21.283   9.022 -0.3407  0.0565 -0.0447
    1W        W34421   3.903  18.404   2.430 -0.1352  0.5428  0.2416
    1W        W34422  10.509   4.338   0.797  0.0262  0.0228  0.2436
    1W        W34423   3.991  16.484   0.865 -0.0318  0.2562 -0.0750
    1W        W34424   1.992  20.478   0.359 -0.4395 -0.2067  0.0930
    1W        W34425   4.644  27.124   1.430  0.2306  0.0548  0.1930
    1W        W34426   5.687  28.301   9.516  0.0385 -0.2041  0.1174
    1W        W34427   4.115  13.633   5.812  0.2059  0.1428  0.2297
    1W        W34428  17.564  19.964   7.744  0.0510 -0.1835 -0.1617
    1W        W34429  26.474  21.010   3.158  0.3835 -0.0990 -0.1033
    1W        W34430  10.707   4.127   1.507  0.0410  0.0185 -0.3389
    1W        W34431   4.509  13.005   9.585  0.0411 -0.0544  0.2929
    1W        W34432  27.024  17.983   1.238 -0.0153  0.1966 -0.2182
    1W        W34433   2.143   0.037   2.883 -0.0318  0.4296 -0.1975
    1W        W34434  12.422  24.866   2.294 -0.0055  0.0470  0.4203
    1W        W34435   8.213  10.224   7.583 -0.2948  0.0248 -0.3002
    1W        W34436  28.205  26.643   3.125  0.1211  0.2414  0.5244
    1W        W34437  19.842  25.692   1.480  0.0288 -0.1772  0.1603
    1W        W34438  17.990   0.218   0.262  0.1122 -0.0361  0.3530
    1W        W34439  21.429   8.251   8.923 -0.0292  0.0966  0.1736
    1W        W34440   2.190  11.484   6.954 -0.0269 -0.1075  0.2538
    1W        W34441   5.328  21.367   1.428  0.2287 -0.0933  0.0106
    1W        W34442  22.642  24.449   0.721  0.1785  0.1605 -0.2542
    1W        W34443   0.578  12.322   8.373  0.2511 -0.2008  0.0159
    1W        W34444  28.786  19.157   2.803 -0.3971 -0.2643 -0.1379
    1W        W34445  19.453   9.608   8.029 -0.3884 -0.1796  0.2969
    1W        W34446  24.544   4.298   9.621  0.2288  0.0073 -0.1632
    1W        W34447   8.246   3.711   1.763  0.1118 -0.5154 -0.1335
    1W        W34448  26.415  12.088   1.278  0.3223  0.0416  0.0505
    1W        W34449   8.828   0.408   1.756 -0.0305 -0.1452 -0.0179
    1W        W34450   2.056  29.312   8.501  0.0855  0.1844  0.0410
    1W        W34451   9.316  10.392   8.803 -0.0828 -0.1376 -0.1585
    1W        W34452  13.956   3.477   6.616 -0.0131  0.1990 -0.2686
    1W        W34453  17.195   5.121   1.732  0.1117 -0.1667  0.1684
    1W        W34454   9.196   6.536   8.740  0.0820 -0.2748 -0.1624
    1W        W34455  27.458   6.672   9.576  0.2725 -0.0420  0.0615
    1W        W34456  22.635   9.151   1.699  0.4198  0.1401  0.2920
    1W        W34457  27.151  17.773   5.572 -0.1188  0.0032  0.0601
    1W        W34458  27.596   5.412   8.388  0.2644 -0.2474 -0.0415
    1W        W34459  16.648  24.964   7.236  0.3195  0.0941  0.1512
    1W        W34460   4.794  25.400   0.933  0.1108  0.1031  0.2180
    1W        W34461  17.024  19.818   7.612  0.2072 -0.0287  0.2384
    1W        W34462  19.926   9.857   8.059 -0.1733 -0.4337 -0.0687
    1W        W34463  21.557  23.638   1.364 -0.0564 -0.1777 -0.1968
    1W        W34464  27.585  13.174   1.614 -0.3152 -0.0497 -0.1623
    1W        W34465   6.932  19.652   1.454  0.1498 -0.0875 -0.1392
    1W        W34466  10.505  18.638   7.643 -0.3985 -0.1049 -0.0151
    1W        W34467  16.532   1.299   1.399 -0.3743  0.2398 -0.2663
    1W        W34468  24.312  14.978   7.587 -0.0249  0.0802 -0.1300
    1W        W34469   0.235  10.251   8.903 -0.0477 -0.0109  0.2353
    1W        W34470   9.343  29.240   7.312  0.0002 -0.1897 -0.0215
    1W        W34471  28.099  12.256   7.966  0.0495 -0.0752  0.1644
    1W        W34472  19.307   5.676   1.126 -0.0074  0.0034  0.1303
    1W        W34473  17.874  13.293   7.479 -0.0539  0.1516 -0.0556
    1W        W34474   9.999  23.237   8.408  0.0561  0.3191  0.3892
    1W        W34475   6.314   5.412   7.434 -0.0102  0.0073 -0.1336
    1W        W34476   8.291   9.490   9.644 -0.0848  0.1049  0.1353
    1W        W34477  16.791  25.295   2.529  0.0086  0.0002  0.2039
    1W        W34478  11.528  23.447   0.891  0.0046  0.0078  0.1121
    1W        W34479   7.632  28.453   0.663 -0.1056  0.0420  0.2264
    1W        W34480  15.351  28.720   3.419  0.2294 -0.0461 -0.4228
    1W        W34481  25.357  19.591   9.538 -0.2651  0.1501  0.2473
    1W        W34482   9.128  24.108   0.096 -0.0884  0.0491  0.0788
    1W        W34483   9.012   1.231   0.603  0.0085 -0.3198 -0.2735
    1W        W34484  20.206   8.035   0.134  0.2149 -0.2948 -0.1510
    1W        W34485   9.385  20.575   7.603 -0.0226 -0.2469  0.0708
    1W        W34486  19.411  19.705   9.226  0.1824 -0.3437 -0.0458
    1W        W34487  23.545  16.640   6.987  0.1650  0.0713 -0.1272
    1W        W34488   4.913  17.518   6.347 -0.1241  0.1404  0.3199
    1W        W34489  16.659  26.547   0.170  0.0343 -0.0389  0.0372
    1W        W34490  11.539  25.058   2.120 -0.1466  0.0382  0.1535
    1W        W34491  25.190  19.729   2.033  0.0145  0.1160  0.1381
    1W        W34492  22.434   7.203   0.373 -0.0268 -0.2602  0.2192
    1W        W34493   6.593  12.210   2.711  0.0435  0.0536  0.0238
    1W        W34494   7.146   3.831   8.032 -0.0759 -0.1972  0.0417
    1W        W34495   3.070   1.201   3.780  0.2737 -0.0070  0.0173
    1W        W34496   2.081   8.704   8.283 -0.2790 -0.2832 -0.2061
    1W        W34497  20.511   1.883   0.735 -0.1123  0.1049  0.1645
    1W        W34498   4.380  15.035   0.171  0.1076  0.2944 -0.1209
    1W        W34499  10.296   4.553   8.159  0.0143 -0.3192  0.0392
    1W        W34500   2.357  17.229   7.990  0.0343  0.0548 -0.1631
    1W        W34501   0.697  12.632   0.040  0.0399  0.1774 -0.1176
    1W        W34502   0.686   2.328   2.259 -0.1821 -0.0082  0.0410
    1W        W34503  23.416  27.085   1.805 -0.2196 -0.3383 -0.0152
    1W        W34504  11.992  13.977   9.326 -0.0206  0.3428 -0.1837
    1W        W34505  13.230   1.253   0.861 -0.0875  0.3621  0.2464
    1W        W34506  19.253  28.740   8.188 -0.3401 -0.1308  0.0064
    1W        W34507   1.795   1.311   2.684 -0.0150  0.0053 -0.4286
    1W        W34508  24.756  27.605   2.810 -0.0085 -0.2979 -0.2218
    1W        W34509   5.666   2.420   1.265 -0.0324 -0.3854  0.0194
    1W        W34510  24.469  15.624   0.002  0.1418  0.3598  0.0547
    1W        W34511  15.850   6.959   3.060 -0.1170  0.2025 -0.1630
    1W        W34512   8.192  23.223   8.548  0.1111 -0.2994  0.0190
    1W        W34513  25.225  26.018   6.766  0.0975  0.0269  0.2978
    1W        W34514  13.367  26.507   0.440 -0.1367  0.1261  0.0893
    1W        W34515  13.548  26.998   8.003  0.1095 -0.0765  0.1713
    1W        W34516   4.107   9.950   2.301  0.0804 -0.0376 -0.0802
    1W        W34517  15.830  15.565   2.516 -0.0220 -0.1425  0.2074
    1W        W34518  29.208   0.111   2.916  0.0638 -0.3557 -0.2932
    1W        W34519  20.283  16.010   0.518 -0.0893  0.1067  0.2388
    1W        W34520   0.809  14.830   8.793 -0.0761  0.3396  0.0888
    1W        W34521  20.366  29.271   1.358  0.1840 -0.0259  0.0096
    1W        W34522  26.073   3.953   6.817 -0.2164  0.1744  0.0668
    1W        W34523  25.959  19.495   8.231 -0.0239  0.2825 -0.0854
    1W        W34524   4.902   9.789   0.726  0.0098 -0.3367  0.0982
    1W        W34525  27.834  21.762   6.944  0.1260 -0.1260 -0.1926
    1W        W34526   2.975   7.815   8.990  0.5140  0.1984  0.0686
    1W        W34527   9.660  27.436   0.908 -0.3000 -0.1369  0.0691
    1W        W34528  19.585  24.838   2.470  0.0378  0.0341 -0.0298
    1W        W34529   7.702  11.983   0.159 -0.0218 -0.2208  0.1117
    1W        W34530  24.674  26.499   0.491 -0.0842  0.0226 -0.1246
    1W        W34531  10.220  21.929   8.848  0.1649  0.1860 -0.0924
    1W        W34532   9.796  26.538   0.920 -0.4570  0.0867  0.2589
    1W        W34533  10.110   4.114   3.389  0.2417 -0.1538  0.1705
    1W        W34534   8.554   6.696   1.194 -0.4032  0.1352  0.0777
    1W        W34535  18.164   2.441   8.537 -0.2118  0.1703  0.1202
    1W        W34536   8.371   7.584   1.799 -0.7258  0.1545  0.1334
    1W        W34537  10.831  28.522   2.921 -0.0025 -0.1147 -0.0483
    1W        W34538  11.707  27.957   3.058 -0.1267  0.1137  0.1586
    1W        W34539  21.313   0.494   6.853 -0.0662  0.1275  0.0327
    1W        W34540  16.915  16.391   2.070 -0.3762  0.1600  0.0289
    1W        W34541   4.838   1.030   3.110  0.1896 -0.0065 -0.0493
    1W        W34542  17.278  14.109   9.489 -0.0557  0.0732  0.0016
    1W        W34543  18.056  18.865   0.856  0.1539  0.2851  0.2545
    1W        W34544   8.379  17.092   3.196  0.0762 -0.6328 -0.2063
    1W        W34545   0.825  12.544   8.814  0.1784  0.1655 -0.1760
    1W        W34546   0.820  21.802   7.230  0.2120  0.0861 -0.3752
    1W        W34547  28.606   5.233   8.284 -0.0756  0.1913  0.1128
    1W        W34548  24.964   8.170   8.672  0.2420 -0.0652  0.0007
    1W        W34549  12.773   7.629   3.422 -0.2094  0.2758 -0.2813
    1W        W34550   0.220   9.619   7.683 -0.2800  0.2660 -0.0565
    1W        W34551  18.444  22.841   7.563  0.3144 -0.2044 -0.1568
    1W        W34552   6.872  21.053   8.081 -0.1877  0.2775 -0.1643
    1W        W34553   1.752   0.456   6.578  0.1286  0.0405 -0.1298
    1W        W34554  22.223  24.210   9.049  0.1437  0.0344 -0.1075
    1W        W34555  14.153  18.572   2.199 -0.0771 -0.0730  0.1203
    1W        W34556  13.489  13.150   1.008  0.1275 -0.2182  0.2446
    1W        W34557  28.340  14.464   6.146 -0.0935  0.0906 -0.0795
    1W        W34558  19.786  12.082   7.336  0.0998  0.0358  0.0876
    1W        W34559  17.231   3.746   1.380  0.0044 -0.0048 -0.3095
    1W        W34560  21.255  12.388   8.661  0.4017  0.2073  0.0831
    1W        W34561   7.957  17.235   7.310  0.2720  0.1994 -0.2176
    1W        W34562  14.491  15.382   9.107 -0.2342 -0.2578 -0.1864
    1W        W34563  26.046  28.235   0.830 -0.4018  0.1063 -0.0546
    1W        W34564  25.228  28.601   1.210 -0.3442  0.3028  0.2719
    1W        W34565  16.388   3.591   2.157 -0.2192 -0.3300  0.2146
    1W        W34566  16.832  17.893   8.783  0.0046 -0.1173 -0.1218
    1W        W34567  14.615  26.175   2.302 -0.2091  0.3729 -0.1012
    1W        W34568  20.309   2.704   7.161  0.2689  0.2094 -0.0780
    1W        W34569  28.029  29.032   1.506  0.0124 -0.0239 -0.0094
    1W        W34570  17.759  15.661   7.075  0.1067 -0.2239  0.2265
    1W        W34571  23.957   1.856   0.109  0.1011 -0.0124  0.2241
    1W        W34572  28.077  14.655   7.126 -0.4038  0.1580 -0.1875
    1W        W34573  24.301  16.186   2.171  0.0668 -0.0970  0.0464
    1W        W34574  29.046  18.182   1.088  0.0813  0.1833 -0.0127
    1W        W34575   2.415   8.926   7.441 -0.1939  0.3285 -0.0680
    1W        W34576  22.615   4.575   6.077  0.2087 -0.0493  0.3212
    1W        W34577  21.127   0.422   8.227  0.0639 -0.0312 -0.0337
    1W        W34578   5.017  20.763   7.355  0.3295  0.1304 -0.3028
    1W        W34579   5.441  17.953   9.627  0.0619  0.3956 -0.0087
    1W        W34580   4.064  18.508   5.749 -0.1013  0.0201  0.1447
    1W        W34581  28.903   7.019   1.384 -0.0286 -0.2494  0.0703
    1W        W34582  19.906  28.502   2.738  0.0647  0.1408  0.5481
    1W        W34583  25.362  14.895   9.025 -0.2675 -0.0177  0.2450
    1W        W34584  23.773  11.229   1.352  0.0669 -0.1866 -0.0268
    1W        W34585   7.330  22.949   0.773 -0.0635  0.0868  0.1658
    1W        W34586  15.030  27.464   7.992  0.1422 -0.1569  0.1163
    1W        W34587  16.210  22.731   9.648  0.1892  0.2679 -0.2528
    1W        W34588  16.933  19.854   2.363  0.1006  0.1699  0.0032
    1W        W34589   3.575  20.076   9.639  0.0836  0.1186 -0.1810
    1W        W34590  26.479   9.524   0.665  0.0016  0.0131 -0.0256
    1W        W34591   6.648   7.589   1.851  0.1272 -0.1430  0.2065
    1W        W34592   1.222  11.818   0.155  0.3057  0.1602 -0.0162
    1W        W34593   5.951  28.757   7.741 -0.1666  0.2373  0.0490
    1W        W34594  13.238  15.173   2.661  0.1860 -0.0292 -0.3250
    1W        W34595  26.599   9.236   6.630  0.0034 -0.2115 -0.3251
    1W        W34596   1.392   9.164   0.632  0.3168  0.1444  0.0059
    1W        W34597  10.972  13.020   8.553 -0.1943  0.1398 -0.1896
    1W        W34598  21.844   7.727   7.665 -0.0444  0.0006 -0.2660
    1W        W34599  20.043  19.910   8.649 -0.1688 -0.0889  0.1096
    1W        W34600  16.343  17.766   1.528 -0.1656 -0.0908  0.0803
    1W        W34601  13.551  22.810   1.210 -0.3021 -0.2291 -0.1287
    1W        W34602  14.196  21.854   8.265  0.1516 -0.0402  0.2340
    1W        W34603  10.302  10.346   3.185 -0.0721 -0.0833 -0.0994
    1W        W34604  19.364   6.624   0.745  0.1048 -0.2688  0.2683
    1W        W34605   9.973   5.892   7.730  0.3066  0.0876 -0.1682
    1W        W34606   8.640   2.078   1.516 -0.2037 -0.1094 -0.2129
    1W        W34607  14.983  24.139   7.311  0.0610  0.1336 -0.1399
    1W        W34608  17.356   2.557   6.399 -0.0807 -0.0429  0.2555
    1W        W34609  25.627  16.822   0.922 -0.0339 -0.0226  0.2537
    1W        W34610  15.857   4.693   8.095  0.2195 -0.1227 -0.0394
    1W        W34611   0.750  16.810   1.392 -0.1570  0.0118 -0.2274
    1W        W34612  21.109  19.762   9.312 -0.1432 -0.1139 -0.4397
    1W        W34613   9.893   0.840   0.933  0.0275 -0.1279 -0.0787
    1W        W34614   7.936  12.108   2.632 -0.2660 -0.2462  0.1512
    1W        W34615  15.935  12.209   1.344  0.2400  0.0253 -0.1434
    1W        W34616  13.396  10.889   1.198 -0.1288 -0.1839  0.2572
    1W        W34617  17.076  11.625   0.248  0.1595 -0.1326  0.0817
    1W        W34618   4.340   4.074   6.666 -0.0475  0.0176 -0.0272
    1W        W34619  14.132  28.325   8.351 -0.0803 -0.2202  0.2809
    1W        W34620  17.187  14.637   9.574 -0.1410 -0.0904  0.1837
    1W        W34621  20.758   9.177   7.316 -0.0259  0.1130 -0.2360
    1W        W34622  12.505  11.615   8.976 -0.0274 -0.1393  0.1309
    1W        W34623   5.322  28.380   0.598  0.1495 -0.2294  0.1248
    1W        W34624  21.577   0.397   7.921 -0.0607 -0.1827  0.0572
    1W        W34625  19.411   0.088   0.278 -0.3522  0.1744  0.1151
    1W        W34626  23.152  14.915   9.532 -0.2689 -0.1895 -0.0654
    1W        W34627  17.481  27.601   9.183  0.1977 -0.2626  0.2318
    1W        W34628  15.508  12.395   0.683  0.1592 -0.2622  0.2783
    1W        W34629  13.010  19.439   9.003 -0.0536  0.0087 -0.0059
    1W        W34630   8.429  27.147   7.174  0.5620 -0.1333  0.1817
    1W        W34631  15.340   2.778   1.605  0.1399 -0.0395  0.0560
    1W        W34632  17.730  23.912   3.355  0.0657  0.1718  0.0537
    1W        W34633  19.943  12.871   8.476  0.0021 -0.0456  0.4473
    1W        W34634  23.120  17.464   7.823 -0.1837 -0.1291  0.2706
    1W        W34635  26.459  19.122   2.028 -0.2329 -0.0480 -0.1733
    1W        W34636  25.483   1.876   1.118  0.4814 -0.1479  0.1105
    1W        W34637   4.913  13.372   7.142 -0.1141  0.0643  0.1687
    1W        W34638  23.982   8.667   2.748 -0.0259  0.3328 -0.0337
    1W        W34639  22.603   2.527   8.004  0.4654  0.0142  0.1815
    1W        W34640   0.365  24.932   1.507  0.1586  0.0113 -0.1571
    1W        W34641   4.733  16.981   6.154 -0.1275  0.1442  0.1623
    1W        W34642  21.374   6.135   2.265 -0.2200  0.2072  0.0810
    1W        W34643   2.185   7.593   1.364 -0.0321 -0.4077 -0.1759
    1W        W34644   1.954  10.613   7.233 -0.2278 -0.1827 -0.2500
    1W        W34645   3.745  12.668   0.855  0.0098 -0.3361  0.4375
    1W        W34646  24.083  11.887   8.777  0.2709  0.0729 -0.2941
    1W        W34647   4.455  18.337   7.600  0.5621  0.0031 -0.0301
    1W        W34648   3.549  20.007   8.268  0.1892  0.0805  0.0944
    1W        W34649  20.962  25.719   7.864  0.0821  0.3060  0.1175
    1W        W34650  20.445  14.166   8.125 -0.0221 -0.1024 -0.1857
    1W        W34651   2.283  10.430   2.780  0.1902 -0.1259  0.4684
    1W        W34652   4.151   5.099   1.991 -0.3477  0.0726  0.0819
    1W        W34653  12.110   0.140   3.188 -0.0631 -0.2600  0.0622
    1W        W34654  12.778  25.265   9.531  0.0663  0.0490 -0.1792
    1W        W34655   7.771  25.462   8.408  0.0502 -0.1384 -0.1965
    1W        W34656   5.033  27.735   1.981 -0.2693  0.1605  0.0907
    1W        W34657   3.102   3.873   6.373  0.2563  0.0235 -0.0834
    1W        W34658   6.196   2.015   2.455  0.1617 -0.2365 -0.0642
    1W        W34659  23.364   4.269   1.932  0.2456 -0.1799  0.0616
    1W        W34660   6.002  18.320   9.103 -0.3847 -0.2394  0.0509
    1W        W34661  11.126   7.712   2.149 -0.0224  0.0679  0.4710
    1W        W34662  10.084   6.327   7.436  0.3935  0.0906  0.0517
    1W        W34663  11.544  12.307   0.860  0.0612  0.0435  0.1549
    1W        W34664  21.119   3.842   7.052 -0.3088  0.1295 -0.0526
    1W        W34665  17.171  20.079   8.065 -0.2477 -0.1575  0.0524
    1W        W34666   2.747  24.442   6.878  0.2615  0.2647 -0.3785
    1W        W34667   1.193   5.905   5.348 -0.1721  0.4355  0.0088
    1W        W34668  16.316  15.228   9.077  0.1057  0.0150  0.1496
    1W        W34669   3.051  20.155   7.025 -0.4169 -0.0019 -0.3061
    1W        W34670  12.382   6.220   0.141 -0.1384  0.0010 -0.1824
    1W        W34671  12.803   8.506   7.931  0.2083  0.0140 -0.0905
    1W        W34672   6.495   1.363   7.284  0.1861 -0.2383  0.1590
    1W        W34673   5.735   4.234   1.271  0.1581 -0.0076  0.0433
    1W        W34674   3.944  18.655   8.141 -0.3161  0.3223  0.5165
    1W        W34675  17.481   1.007   8.269  0.0790 -0.1046  0.1024
    1W        W34676  23.186   2.193   8.766  0.0259 -0.4880  0.0125
    1W        W34677  10.122  11.128   8.140 -0.0237  0.0851 -0.0196
    1W        W34678   3.060  10.267   9.420  0.0750 -0.2261 -0.1887
    1W        W34679  24.401   3.474   6.377  0.3853 -0.2181  0.0881
    1W        W34680   5.362  19.105   0.052  0.0091 -0.0121  0.0956
    1W        W34681  18.837  22.830   3.365  0.1522 -0.0833 -0.0957
    1W        W34682  10.096   2.243   5.586  0.2292  0.2020  0.0999
    1W        W34683   8.524   6.403   0.250 -0.0117  0.0170 -0.1796
    1W        W34684   7.662  18.025   2.558 -0.0219  0.0997 -0.2233
    1W        W34685  11.289   5.447   7.783  0.0709  0.4373  0.1101
    1W        W34686  25.647   6.086   1.210 -0.0109 -0.2018 -0.0560
    1W        W34687  16.395  25.641   2.422 -0.0452  0.1536  0.0965
    1W        W34688  12.162   7.908   0.172  0.0887 -0.0323  0.0882
    1W        W34689  28.521  23.433   3.155 -0.1198  0.2295 -0.1319
    1W        W34690   8.092  21.679   1.670 -0.0212  0.0934 -0.0839
    1W        W34691  25.902  14.022   6.703 -0.0743 -0.0756 -0.2206
    1W        W34692   7.645   2.253   2.991  0.1125 -0.1354  0.0454
    1W        W34693  11.841  26.867   1.705 -0.1509  0.1585 -0.1058
    1W        W34694   3.974  11.211   6.992 -0.0709  0.2708 -0.1755
    1W        W34695  18.910  11.216   1.866  0.0472  0.1057  0.3024
    1W        W34696   8.897  19.671   1.187  0.1637  0.0987 -0.1387
    1W        W34697  21.651   6.488   1.034  0.0824 -0.3995 -0.3680
    1W        W34698   5.158  20.345   9.313  0.2732 -0.1066 -0.1080
    1W        W34699  26.865  11.647   8.247  0.1976 -0.0936  0.2504
    1W        W34700  21.472  23.969   0.185 -0.0596 -0.0472  0.0530
    1W        W34701  23.490   1.550   9.524  0.1360  0.0936  0.1728
    1W        W34702  10.648  27.482   0.494  0.0723  0.2413  0.0826
    1W        W34703  24.523  28.391   1.738  0.0919  0.1625 -0.2859
    1W        W34704  24.907   2.330   0.520  0.0222 -0.0045 -0.2414
    1W        W34705   1.242  10.255   1.180  0.0404 -0.1731  0.1943
    1W        W34706  15.506  24.773   8.291  0.2402  0.1501  0.3231
    1W        W34707   8.599  15.054   7.108 -0.2320 -0.1117  0.1292
    1W        W34708   1.663   7.540   1.764 -0.0406  0.1957  0.1934
    1W        W34709   4.513   6.836   2.804  0.3657  0.2363 -0.1820
    1W        W34710   4.765  17.996   0.296  0.0162 -0.1267  0.1111
    1W        W34711  12.939  19.041   1.696 -0.1760  0.4819 -0.1459
    1W        W34712   8.659  17.267   1.523  0.1077  0.1307 -0.0695
    1W        W34713   1.910   3.753   2.214 -0.1093  0.0684 -0.0830
    1W        W34714  28.237  24.380   7.181  0.0253 -0.0261  0.1145
    1W        W34715  28.628  20.749   1.386 -0.0840 -0.0175  0.1099
    1W        W34716  18.641  26.708   9.069  0.0236  0.0646  0.0265
    1W        W34717  29.333  24.025   8.546 -0.1057 -0.1349 -0.0691
    1W        W34718   3.157  28.858   8.782  0.2465  0.0218 -0.2377
    1W        W34719  14.314  13.244   0.425  0.3345  0.2027 -0.5311
    1W        W34720  19.840  21.383   7.599 -0.2035 -0.1268 -0.1914
    1W        W34721   1.785  16.212   2.384  0.0607 -0.0531  0.0179
    1W        W34722  20.749  13.931   0.568  0.0133 -0.0434 -0.0740
    1W        W34723  15.789  25.570   7.220 -0.1100  0.0045 -0.1681
    1W        W34724  15.326   7.042   8.549 -0.0528 -0.1727  0.1675
    1W        W34725  12.565   1.155   2.634  0.0817  0.1772  0.1675
    1W        W34726   2.626   7.530   6.599  0.0690  0.0184  0.0243
    1W        W34727  14.192  23.962   0.502  0.3061 -0.1844 -0.2542
    1W        W34728  24.858  23.760   7.533  0.2058  0.0644 -0.0431
    1W        W34729   3.366  25.520   7.874 -0.1833 -0.0985  0.3641
    1W        W34730  13.266  29.323   0.404  0.0584 -0.0371 -0.0901
    1W        W34731  10.454   0.794   8.220  0.0902  0.2106 -0.1853
    1W        W34732   4.678   3.222   0.670 -0.2242  0.1526  0.1052
    1W        W34733  28.448   7.087   1.028  0.3246  0.1239 -0.0794
    1W        W34734   1.806   5.338   6.426  0.2248 -0.0285  0.1059
    1W        W34735  11.430   8.099   2.150 -0.2386  0.3403 -0.0483
    1W        W34736  15.083  12.945   8.773  0.1893  0.1711 -0.1364
    1W        W34737  15.435  26.836   3.290  0.1844 -0.1580  0.1673
    1W        W34738   4.778  19.266   8.640 -0.0373 -0.1831 -0.3033
    1W        W34739   3.782  21.532   0.651 -0.0301 -0.4622  0.0597
    1W        W34740  18.242   6.006   2.013  0.3033  0.2236  0.1289
    1W        W34741  24.445  10.523   1.749  0.1526  0.1483 -0.1497
    1W        W34742   4.479  17.997   9.533 -0.0058  0.0063  0.4538
    1W        W34743   0.874   4.880   6.360  0.0114 -0.3185 -0.1881
    1W        W34744   2.629   9.804   8.168  0.0871  0.0780 -0.0170
    1W        W34745  20.568   0.623   8.433  0.0064 -0.0035 -0.2521
    1W        W34746  24.773  13.819   7.283  0.0442  0.0894  0.0451
    1W        W34747   2.226  12.385   9.315 -0.3088  0.0375 -0.1217
    1W        W34748  17.786  25.138   8.455 -0.2277 -0.0510 -0.1559
    1W        W34749  13.577  26.156   9.513 -0.0322 -0.2063  0.2520
    1W        W34750   4.958  17.788   9.559 -0.0575 -0.1987 -0.4954
    1W        W34751   5.882  10.754   6.923  0.0960 -0.1047 -0.1569
    1W        W34752  17.526  16.560   7.896  0.0647  0.2173  0.5053
    1W        W34753  27.301  11.001   2.096  0.1741 -0.0224  0.2995
    1W        W34754  23.920  14.994   6.592  0.1087  0.3400 -0.1930
    1W        W34755  15.249   3.240   1.627 -0.0579 -0.1029  0.0325
    1W        W34756  18.473  15.821   0.607 -0.0440  0.0706 -0.3934
    1W        W34757  17.181  22.538   7.092 -0.2220  0.1430 -0.1654
    1W        W34758   4.071  13.367   1.513 -0.1548 -0.4230  0.0868
    1W        W34759  27.038  19.858   2.975 -0.1851  0.2421 -0.0937
    1W        W34760   7.131  10.597   7.429  0.3431  0.3119  0.4428
    1W        W34761  20.181  25.339   1.439 -0.1629 -0.2327  0.0095
    1W        W34762  14.642   5.772   9.154 -0.2064  0.2184 -0.0922
    1W        W34763   4.460   7.389   8.751  0.0645  0.0292 -0.0738
    1W        W34764   8.394   6.156   8.956 -0.0275  0.3536  0.1925
    1W        W34765  10.677   3.033   2.849 -0.1605 -0.0037  0.5236
    1W        W34766  21.923  26.101   1.517 -0.0696  0.0825 -0.0670
    1W        W34767  12.436  17.179   7.455 -0.2787 -0.2174  0.0873
    1W        W34768   1.643   1.872   7.906 -0.2048 -0.0292  0.3086
    1W        W34769   3.800  10.717   1.930  0.2636  0.1566  0.0850
    1W        W34770   1.280  12.387   2.407  0.0801  0.1165  0.0342
    1W        W34771  16.639  16.589   9.335  0.1766 -0.0527 -0.0895
    1W        W34772  22.077  26.250   7.615  0.2346  0.1157  0.0505
    1W        W34773  18.143  28.073   0.971 -0.2997  0.0346  0.1688
    1W        W34774  22.075  13.494   7.428 -0.1837 -0.0508  0.0355
    1W        W34775  18.663  22.420   8.534  0.6521  0.2416  0.1955
    1W        W34776  26.971  27.149   8.096  0.1147  0.0951 -0.2334
    1W        W34777  12.209  22.465   0.338 -0.0674 -0.1977  0.2083
    1W        W34778  11.520   7.440   3.599  0.0992  0.1155  0.0343
    1W        W34779  16.646  16.008   2.592  0.0631 -0.1358  0.0154
    1W        W34780   1.747   8.778   7.910 -0.1648  0.2680  0.0534
    1W        W34781   2.002   4.902   7.153 -0.1595  0.1182 -0.1442
    1W        W34782   0.179  21.838   1.847 -0.2200  0.2051 -0.0062
    1W        W34783   4.475  14.767   7.572  0.0743 -0.3268  0.0191
    1W        W34784  22.257  14.702   8.358  0.0390  0.2526 -0.1762
    1W        W34785  11.653   3.743   2.804 -0.2149  0.1477  0.0288
    1W        W34786   3.962   6.684   1.724 -0.1766 -0.3726 -0.0501
    1W        W34787  23.588   6.516   9.217  0.0255  0.3569  0.1083
    1W        W34788   3.264  22.693   6.150 -0.3509  0.0544  0.0543
    1W        W34789   8.015  13.054   1.830 -0.2247  0.0818 -0.0642
    1W        W34790  29.359  13.256   7.101  0.1237 -0.1822  0.4440
    1W        W34791  22.550  18.289   8.330  0.4139  0.0840  0.1623
    1W        W34792   2.120   6.036   9.369  0.0847  0.2976 -0.1033
    1W        W34793  15.864  12.273   8.408  0.0386 -0.4428 -0.3097
    1W        W34794  21.172  10.404   1.740 -0.0114 -0.0467  0.1378
    1W        W34795  11.028   5.840   8.932  0.1797 -0.0183 -0.1062
    1W        W34796   9.649  12.374   8.000  0.1904  0.3921  0.0916
    1W        W34797  21.008  28.384   1.597  0.4322  0.0473  0.0979
    1W        W34798   1.858  15.761   1.136 -0.0146  0.1253 -0.1444
    1W        W34799  24.007   7.653   7.694 -0.0720  0.0258 -0.1414
    1W        W34800  19.857  27.165   7.388  0.0646  0.2033 -0.0906
    1W        W34801   8.470   6.627   9.135 -0.0758 -0.1418  0.0089
    1W        W34802  27.849   7.117   9.626  0.0314  0.0906  0.0740
    1W        W34803   9.922  29.339   2.347  0.1153 -0.1611  0.1038
    1W        W34804   3.505  11.629   8.921  0.0522 -0.2306 -0.1464
    1W        W34805  22.676  25.022   1.948 -0.0432  0.0792 -0.2106
    1W        W34806  25.137   3.577   2.084 -0.0392 -0.1015 -0.1485
    1W        W34807   7.141   6.209   8.526 -0.0100 -0.2266  0.1783
    1W        W34808   2.007   8.495   9.115  0.0843 -0.0482  0.0171
    1W        W34809   0.807  27.688   2.129  0.0778 -0.4589 -0.1638
    1W        W34810  20.121  21.670   1.807 -0.0710  0.3156  0.1108
    1W        W34811  16.696  24.036   0.551  0.2754  0.0444  0.5094
    1W        W34812  17.144  24.449   7.515  0.2240  0.0277  0.0066
    1W        W34813  23.379  23.836   1.318  0.0364 -0.0425 -0.1355
    1W        W34814  22.161   0.391   7.227  0.2690 -0.2039 -0.1554
    1W        W34815   0.703   7.390   1.846 -0.0328 -0.1834 -0.0740
    1W        W34816   0.256  10.481   0.163 -0.0304 -0.0002  0.0179
    1W        W34817  27.522  16.556   8.671 -0.2046 -0.0032  0.2060
    1W        W34818  11.929   8.467   7.018  0.3087 -0.1760 -0.1275
    1W        W34819  14.640   7.159   8.445 -0.0357 -0.1292  0.1126
    1W        W34820  25.608  19.007   8.808  0.4275  0.1607  0.0965
    1W        W34821   2.327  11.429   2.136 -0.1179  0.1123  0.1944
    1W        W34822   3.531   2.350   7.103 -0.0637  0.2259  0.1457
    1W        W34823   7.010   3.371   2.000 -0.1810  0.1227  0.1635
    1W        W34824  22.964  16.246   7.345  0.5019 -0.2974 -0.0380
    1W        W34825  20.796  15.448   7.871 -0.1879  0.3139 -0.2599
    1W        W34826   3.739  16.205   8.813  0.0266 -0.1071 -0.1160
    1W        W34827   2.648  24.643   3.191 -0.3196  0.3283 -0.0271
    1W        W34828  18.666  23.671   2.706  0.3706 -0.3288 -0.0580
    1W        W34829   1.042  25.876   2.197  0.2346  0.0536  0.0701
    1W        W34830  11.446   6.263   8.878  0.2261 -0.4851  0.1085
    1W        W34831  16.501  18.761   1.668 -0.1631 -0.0256  0.0148
    1W        W34832  29.322  21.576   7.090 -0.1951  0.0912 -0.1918
    1W        W34833   7.060  23.888   6.472 -0.0980 -0.0591  0.1087
    1W        W34834  12.697  22.400   8.939  0.1332  0.0286 -0.1594
    1W        W34835  16.432  21.567   2.361 -0.3319  0.4116 -0.0228
    1W        W34836  18.217   5.137   0.232  0.1320  0.0933  0.0989
    1W        W34837  15.319  13.974   8.954  0.0864 -0.1273  0.2579
    1W        W34838   7.007   7.443   3.236 -0.0517  0.0282 -0.2524
    1W        W34839   5.862  23.859   7.465  0.3527  0.0680 -0.1167
    1W        W34840  12.164  25.750   9.518 -0.0427  0.0459  0.3077
    1W        W34841   7.024  25.445   8.147  0.0889  0.1242  0.2196
    1W        W34842   9.146   7.544   2.498  0.0072  0.0930 -0.0375
    1W        W34843  26.001   8.581   9.263  0.2924 -0.1273 -0.4561
    1W        W34844  23.191  21.436   9.215  0.0874 -0.1484 -0.0115
    1W        W34845   5.586  25.172   1.257  0.1261 -0.1407 -0.2498
    1W        W34846  18.317   4.125   9.493 -0.2385  0.3105  0.0238
    1W        W34847   8.139  26.682   7.447 -0.1117 -0.1989  0.1194
    1W        W34848   8.537  11.754   9.223  0.4788  0.4020  0.1377
    1W        W34849  12.739   4.776   2.176  0.0748  0.0746  0.4466
    1W        W34850  12.831  21.967   9.652  0.0646  0.0849 -0.0747
    1W        W34851  10.376  22.073   1.225 -0.0655 -0.2812  0.0233
    1W        W34852  27.484  10.724   9.408 -0.0292 -0.1942  0.0532
    1W        W34853   9.250   0.725   8.756  0.0081  0.1208 -0.0169
    1W        W34854  28.001  18.625   7.491 -0.0283  0.1819  0.1171
    1W        W34855   5.392  24.640   2.472  0.2613  0.2448 -0.0606
    1W        W34856  24.255  23.101   8.055  0.1403  0.1221  0.1402
    1W        W34857   0.780  20.386   0.582  0.0266 -0.1014 -0.0049
    1W        W34858  27.652   3.146   6.311 -0.0650 -0.2953 -0.4096
    1W        W34859   7.054  26.387   2.284  0.4533 -0.4608 -0.0705
    1W        W34860  25.529   5.339   9.348 -0.0408 -0.0214 -0.3435
    1W        W34861  22.769  11.375   1.160 -0.0433 -0.3681  0.0269
    1W        W34862   1.967  19.139   7.187 -0.0481 -0.2150  0.0015
    1W        W34863  16.889  22.100   0.732 -0.0211 -0.2328  0.0877
    1W        W34864  19.846  12.657   1.317  0.0668  0.0719 -0.2162
    1W        W34865   7.783   5.813   2.328  0.2497 -0.2182 -0.3466
    1W        W34866  21.376   8.531   7.679  0.0080  0.4375  0.4677
    1W        W34867   4.820  23.930   2.951 -0.1630 -0.3937  0.1584
    1W        W34868  17.255  11.617   1.203  0.2199 -0.0613  0.2171
    1W        W34869  27.976  13.405   1.001 -0.0146 -0.0241 -0.4216
    1W        W34870  28.106   7.864   9.397  0.0924 -0.1738 -0.3495
    1W        W34871  10.750  10.837   9.371 -0.3483  0.0123  0.0127
    1W        W34872  16.458  23.875   9.229  0.0085  0.0448 -0.1712
    1W        W34873  12.715   1.966   2.298  0.2108  0.2085  0.0265
    1W        W34874  26.145  14.038   7.300  0.4077  0.1061  0.0969
    1W        W34875  23.241  11.113   1.275 -0.1888  0.0323  0.1790
    1W        W34876  27.704  27.165   0.359  0.1184  0.3944 -0.0459
    1W        W34877  24.927  11.702   6.161  0.3441 -0.1113  0.2119
    1W        W34878  25.891  14.721   6.567 -0.0029 -0.0062 -0.1883
    1W        W34879  26.938  29.295   6.987  0.0344 -0.1218  0.0239
    1W        W34880   2.865  18.673   8.111  0.3983  0.0939  0.0666
    1W        W34881   9.089   6.586   0.937  0.0149 -0.0953 -0.1307
    1W        W34882  12.777  22.532   1.951 -0.2212 -0.1251  0.2624
    1W        W34883  27.144   4.039   7.056  0.1355  0.1748  0.0264
    1W        W34884  18.265   7.594   9.018  0.0644 -0.0323  0.0373
    1W        W34885  18.013  12.450   2.070 -0.0488 -0.0590  0.0585
    1W        W34886   9.336  15.317   8.224  0.0335 -0.0710 -0.0975
    1W        W34887  27.084   5.736   8.444 -0.0113 -0.1104  0.0598
    1W        W34888   7.501   6.936   8.809 -0.0518 -0.0919  0.2881
    1W        W34889  15.716  16.195   0.535  0.0933 -0.0228  0.0451
    1W        W34890  20.866  10.801   1.666 -0.1337  0.0897  0.1145
    1W        W34891  16.649   3.034   3.059 -0.0185  0.0380  0.0865
    1W        W34892   6.274  11.472   3.110 -0.1743  0.2791 -0.0127
    1W        W34893  13.127  28.422   2.165 -0.1571 -0.1561 -0.2145
    1W        W34894   6.660  16.608   0.440  0.0365 -0.1063 -0.0216
    1W        W34895  20.234   7.249   7.266  0.3528  0.0397  0.0102
    1W        W34896  10.803   1.655   7.954  0.0177  0.2380 -0.2182
    1W        W34897  25.790  12.094   7.162 -0.0231  0.0806  0.1355
    1W        W34898  21.891  21.616   0.380  0.1730 -0.0451 -0.0148
    1W        W34899  24.227  27.237   0.091 -0.2835  0.0057 -0.0643
    1W        W34900   9.437  28.091   9.295 -0.1240  0.2502  0.0723
    1W        W34901  22.649   9.328   9.375  0.0083  0.1497  0.0178
    1W        W34902  17.369   5.705   7.277 -0.2471 -0.2343  0.0800
    1W        W34903  16.918   4.393   1.516 -0.0773 -0.0649 -0.1293
    1W        W34904  22.684   0.153   1.281 -0.2321 -0.3677 -0.3139
    1W        W34905  24.814   9.992   8.405  0.0459 -0.1406  0.2144
    1W        W34906  12.888  22.252   1.486 -0.0226  0.0798  0.1273
    1W        W34907  19.317   0.257   9.056 -0.2981 -0.1435 -0.2641
    1W        W34908   8.371   9.662   1.841 -0.0491 -0.0126 -0.1722
    1W        W34909  23.727   2.067   8.323  0.0801  0.3598 -0.1838
    1W        W34910  13.986   2.452   9.046 -0.3685 -0.0462 -0.3029
    1W        W34911  21.630  13.475   0.312  0.0616  0.0273 -0.3103
    1W        W34912  14.076  16.328   9.071  0.0332 -0.0974 -0.1700
    1W        W34913  24.244  25.140   6.366  0.2594  0.1846  0.0988
    1W        W34914  19.540   0.239   2.783 -0.0453 -0.1590  0.1370
    1W        W34915  12.767   6.829   1.550  0.0271 -0.2053  0.1003
    1W        W34916   4.429  19.376   6.187  0.0032 -0.0405  0.0372
    1W        W34917   2.914   9.230   1.074  0.0244  0.1435 -0.0074
    1W        W34918  24.904  11.549   5.673 -0.0043  0.2620 -0.0390
    1W        W34919  21.703  24.062   9.380  0.1856 -0.1721  0.0081
    1W        W34920  19.120  28.287   9.009  0.1527 -0.0658 -0.3886
    1W        W34921   9.842  17.405   9.456  0.1167 -0.1178 -0.0619
    1W        W34922  25.711  22.358   9.492 -0.1282  0.0219 -0.0449
    1W        W34923  21.702   8.217   8.487 -0.1484  0.2480 -0.3870
    1W        W34924   0.869  21.834   6.152  0.2327  0.2378 -0.1032
    1W        W34925  18.511  10.394   2.423  0.0434  0.2496  0.2146
    1W        W34926   2.805   8.417   1.475  0.1085  0.0490 -0.1535
    1W        W34927  14.033  10.735   1.119 -0.5305  0.1931 -0.1201
    1W        W34928   3.604  22.858   6.535 -0.0942  0.2594 -0.3024
    1W        W34929  17.927  11.153   7.608  0.0466  0.0412 -0.0491
    1W        W34930  19.991   2.631   7.554  0.0752 -0.0677  0.0977
    1W        W34931   5.080  12.455   7.343 -0.1822 -0.3859  0.0895
    1W        W34932  15.414   3.112   9.060  0.0374  0.0032 -0.3414
    1W        W34933  29.004  11.800   7.220  0.1335 -0.2783 -0.0091
    1W        W34934   9.531  27.462   1.420 -0.1433  0.1481 -0.0204
    1W        W34935  17.708  13.156   0.151 -0.0875  0.0734  0.2000
    1W        W34936  10.582   5.930   1.330 -0.0973 -0.2286 -0.2571
    1W        W34937   8.830   8.653   8.446 -0.0918 -0.1309  0.0320
    1W        W34938  23.028   6.401   1.485  0.4078 -0.0965  0.2835
    1W        W34939  15.564  20.169   7.167 -0.0411  0.3200  0.1890
    1W        W34940   7.735   6.988   2.054  0.1452 -0.2673 -0.0166
    1W        W34941  15.385  25.933   8.013  0.0042  0.1191 -0.1865
    1W        W34942   5.617  22.790   7.159  0.1099  0.2745 -0.1420
    1W        W34943   1.506   7.503   9.246 -0.2357 -0.1739  0.0192
    1W        W34944  17.293  25.843   1.573 -0.1561  0.0191 -0.0393
    1W        W34945   5.695   5.623   9.491  0.2212 -0.0641 -0.3446
    1W        W34946  24.504  27.672   8.935  0.3863 -0.0114  0.1786
    1W        W34947  24.461  23.071   1.520  0.1860 -0.1177  0.1873
    1W        W34948  28.681  15.309   9.517  0.2105  0.1404  0.1041
    1W        W34949  28.076  13.129   9.676 -0.4553  0.3926  0.0110
    1W        W34950  23.198  14.229   7.943  0.1536  0.0296 -0.0179
    1W        W34951   4.020   2.809   7.620  0.2570 -0.0435 -0.2181
    1W        W34952  20.343  14.070   7.576 -0.1425 -0.0604 -0.1760
    1W        W34953  19.732   8.878   1.982 -0.3920  0.1205  0.1844
    1W        W34954  16.357   7.816   8.798  0.2109 -0.0586 -0.1505
    1W        W34955  27.315  29.337   9.121 -0.5119  0.1719  0.2241
    1W        W34956  24.614   0.135   8.217 -0.2017  0.0139  0.4307
    1W        W34957   4.612   5.715   7.784  0.1124 -0.0475 -0.0181
    1W        W34958  17.169   5.006   7.643  0.2251  0.1044 -0.2593
    1W        W34959  25.017  26.316   0.000  0.0083 -0.0998 -0.1441
    1W        W34960  21.908   2.636   0.598  0.3488  0.2197 -0.2477
    1W        W34961  12.609   5.044   0.055  0.2238  0.2992  0.3541
    1W        W34962  20.551  13.956   9.378 -0.2419 -0.1824  0.3843
    1W        W34963   1.657  21.069   9.320 -0.0666 -0.2107 -0.0229
    1W        W34964   4.458  23.119   9.568 -0.1402  0.2045  0.0850
    1W        W34965  10.891   9.383   8.793 -0.0809  0.2271  0.3527
    1W        W34966   0.320  18.466   1.796  0.1965 -0.1924 -0.1848
    1W        W34967   7.380   3.288   1.576 -0.0627  0.0339  0.1264
    1W        W34968   7.065   2.366   2.398  0.0875  0.5318  0.3360
    1W        W34969   3.480  11.536   0.203  0.1175 -0.0729 -0.1854
    1W        W34970  12.389   7.882   2.575 -0.0286  0.0119  0.1210
    1W        W34971  16.287  25.900   0.167 -0.2999 -0.2792 -0.0760
    1W        W34972   8.102  12.293   8.804  0.0883 -0.3801  0.3031
    1W        W34973  27.454  12.237   1.425 -0.0134  0.2378  0.2244
    1W        W34974  28.941  12.953   7.221  0.0488  0.2138  0.1012
    1W        W34975  20.812   8.632   7.411 -0.0934 -0.2301 -0.2578
    1W        W34976  23.653  22.489   9.018 -0.4616  0.2419  0.0151
    1W        W34977  19.793   4.368   8.548 -0.1775  0.1612 -0.1752
    1W        W34978   6.123  21.262   1.854  0.1601  0.0382  0.3233
    1W        W34979  17.339   1.364   6.955  0.0496  0.1302 -0.0820
    1W        W34980   7.179  28.187   2.084 -0.5570  0.0709 -0.0469
    1W        W34981  20.987   1.731   0.164 -0.0743 -0.3338 -0.1649
    1W        W34982   2.307  18.137   8.730  0.2014  0.0793  0.0373
    1W        W34983   1.712  25.110   1.580 -0.0723  0.0159 -0.1453
    1W        W34984   7.931  24.705   2.276  0.5383 -0.0475 -0.0883
    1W        W34985  10.928   9.885   1.739  0.0997 -0.2350 -0.2013
    1W        W34986   2.960   2.084   1.538 -0.1680  0.1261  0.2339
    1W        W34987   8.154  11.207   0.782 -0.1868  0.1319  0.0181
    1W        W34988  27.552  23.888   8.245  0.2223 -0.0572 -0.0431
    1W        W34989   9.095   3.204   2.454  0.0483 -0.0395  0.2170
    1W        W34990   7.354  16.941   8.972 -0.0017  0.2671  0.0307
    1W        W34991   0.552   6.083   0.848  0.0578 -0.1306  0.1432
    1W        W34992  10.915   5.622   2.408 -0.0167  0.0453 -0.0942
    1W        W34993   9.072  13.993   7.980 -0.1942 -0.2976 -0.1302
    1W        W34994  18.874  21.738   2.623  0.3710 -0.0033 -0.0839
    1W        W34995  29.111   0.019   6.421  0.4781 -0.1976  0.0799
    1W        W34996  23.804   5.961   2.856  0.2398 -0.1570 -0.4244
    1W        W34997   9.579  11.521   9.649 -0.1093  0.1521 -0.1607
    1W        W34998   4.379   9.952   1.638  0.1281 -0.1936  0.1277
    1W        W34999   5.807  20.848   7.777 -0.4791  0.1029  0.4153
    1W        W35000   8.447  25.455   7.771  0.1545 -0.0009 -0.0632
    1W        W35001  17.058  26.036   0.720  0.1735 -0.2144  0.0641
    1W        W35002  18.641   0.438   2.884 -0.1504 -0.0681  0.2209
    1W        W35003   7.908  10.283   2.754  0.2807  0.4349 -0.0237
    1W        W35004   1.544  11.141   1.061 -0.1561  0.4614  0.1169
    1W        W35005  28.113  15.875   7.690 -0.0342 -0.1304  0.0597
    1W        W35006  29.242  24.137   9.453  0.1639  0.0458  0.0605
    1W        W35007  17.054   6.403   8.764 -0.2110 -0.0084  0.0811
    1W        W35008  18.787  26.712   2.481 -0.1031  0.0537  0.0263
    1W        W35009  26.988  23.739   2.330 -0.2310  0.0170  0.0604
    1W        W35010  28.496  10.370   1.385 -0.1257  0.0593  0.0437
    1W        W35011  12.832  10.571   8.517  0.0166  0.2142  0.0615
    1W        W35012  28.463   0.162   8.543  0.2981  0.1206 -0.0116
    1W        W35013  14.030  11.707   7.685 -0.0824 -0.2142 -0.2328
    1W        W35014  17.045   4.027   3.802 -0.2456  0.2054 -0.2561
    1W        W35015   1.234  19.473   7.713 -0.1097  0.2471  0.0165
    1W        W35016  24.886  15.791   5.893  0.0832  0.0509 -0.0451
    1W        W35017  27.467  11.435   9.255 -0.1318  0.3116  0.0230
    1W        W35018  16.519  16.678   8.383  0.1671 -0.0125 -0.0346
    1W        W35019  26.546  21.821   8.780  0.1819  0.1469  0.2853
    1W        W35020  16.945   2.106   9.649 -0.1185  0.1657  0.0672
    1W        W35021   7.575   5.116   0.368 -0.0644 -0.0876  0.3252
    1W        W35022  22.835   1.427   8.284 -0.0330 -0.0347 -0.0465
    1W        W35023  27.836  24.422   2.081  0.2180 -0.0713  0.1849
    1W        W35024  24.246  27.519   8.501  0.0423 -0.1137 -0.1641
    1W        W35025  25.656   7.462   0.980 -0.1394 -0.1895  0.0730
    1W        W35026  24.024  18.212   0.385  0.1033  0.8698  0.0376
    1W        W35027   7.559   3.693   1.342  0.2689  0.0443 -0.2621
    1W        W35028  27.444   0.876   2.834 -0.1879  0.0403 -0.0662
    1W        W35029  15.776  28.308   8.932  0.2248  0.2787  0.3061
    1W        W35030   1.090   7.651   2.254  0.0036 -0.0749  0.0931
    1W        W35031  20.063  24.745   7.906  0.2045 -0.1601  0.2593
    1W        W35032   3.162   4.396   8.940  0.0248  0.1024 -0.2435
    1W        W35033   2.775  10.557   6.728 -0.0802 -0.4051  0.0484
    1W        W35034   9.348  14.192   8.412 -0.1392  0.0175  0.1788
    1W        W35035   2.132  29.339   7.960  0.0724 -0.2739  0.2623
    1W        W35036  20.655   8.721   1.963  0.0467  0.4596 -0.1069
    1W        W35037  21.698  17.396   8.980 -0.0285 -0.1115  0.0452
    1W        W35038  16.751   2.268   2.644  0.0557 -0.2584  0.3565
    1W        W35039  20.752  21.401   7.074  0.0888  0.2059 -0.0244
    1W        W35040  27.822  12.182   0.969  0.1411  0.0252 -0.0162
    1W        W35041   5.786  12.235   6.522 -0.1165 -0.1120 -0.0646
    1W        W35042  14.170  10.641   0.044 -0.2521  0.1528 -0.0467
    1W        W35043   3.603  16.932   0.212 -0.4288 -0.2042  0.1522
    1W        W35044   9.416  24.590   7.947  0.0508  0.2850  0.0255
    1W        W35045  26.103   6.262   1.864 -0.1674  0.2852  0.0152
    1W        W35046  28.316  27.046   1.027  0.4609 -0.1884  0.2940
    1W        W35047  25.516  27.778   6.809  0.0844 -0.2360 -0.0544
    1W        W35048  15.877  16.689   8.200 -0.3335  0.0368 -0.0639
    1W        W35049   9.775   8.787   9.333  0.1681  0.4427  0.0370
    1W        W35050  24.913  21.470   7.474 -0.1636 -0.0563  0.0108
    1W        W35051  16.562  25.961   8.199 -0.2406 -0.1923  0.0797
    1W        W35052  18.199  26.078   9.093  0.2859  0.0840  0.4888
    1W        W35053  23.781  26.960   2.132 -0.0249 -0.0387 -0.1642
    1W        W35054  20.923   6.728   2.690 -0.0935  0.2371 -0.0742
    1W        W35055  11.855  21.408   7.695  0.0409  0.2762  0.0247
    1W        W35056  17.672  17.608   8.689 -0.0857 -0.1309 -0.3474
    1W        W35057  26.600  23.741   8.789  0.0249 -0.1757  0.1373
    1W        W35058  13.595  27.034   2.013 -0.0397 -0.1395 -0.0093
    1W        W35059   8.346  29.333   9.615  0.0882 -0.1022  0.1464
    1W        W35060  16.419   4.445   3.272  0.3218  0.0301  0.5157
    1W        W35061   0.164   6.560   1.646  0.0915 -0.3308 -0.1957
    1W        W35062  18.688   3.603   2.247 -0.1491  0.1509 -0.0536
    1W        W35063   4.501  15.878   1.374 -0.2045 -0.1002  0.2184
    1W        W35064  16.732   9.710   0.681 -0.1653  0.0069 -0.1020
    1W        W35065   3.060  22.964   2.545 -0.1385  0.4989 -0.1961
    1W        W35066  14.946   5.471   3.025 -0.0061 -0.3360 -0.0488
    1W        W35067   8.391  27.780   8.335  0.1228 -0.3155  0.1443
    1W        W35068  10.355   7.993   0.255  0.0409 -0.0248 -0.0580
    1W        W35069   0.537   0.270   8.571 -0.1031  0.2008 -0.0177
    1W        W35070  23.194  25.995   2.911 -0.4833  0.2285 -0.0962
    1W        W35071  22.094   8.542   8.406  0.4031 -0.1017  0.1017
    1W        W35072  12.593  26.475   2.125  0.1103 -0.0304  0.2060
    1W        W35073  11.170  14.901   9.534  0.0623 -0.1069  0.3388
    1W        W35074  19.736   4.438   9.165 -0.2632  0.0545 -0.1044
    1W        W35075  13.023   2.079   3.799 -0.0630  0.2896 -0.1970
    1W        W35076  27.820  22.666   6.724 -0.4642  0.0033 -0.1220
    1W        W35077  22.214   9.875   8.175  0.0629 -0.1878  0.0963
    1W        W35078   5.384   5.875   8.751  0.3181  0.2060  0.0284
    1W        W35079  26.110  13.549   1.284 -0.3314 -0.2220  0.0580
    1W        W35080  12.284  14.783   8.851 -0.0128  0.1266 -0.2717
    1W        W35081   8.085  20.404   7.426 -0.0984 -0.1449  0.0282
    1W        W35082   0.717  19.720   2.126 -0.2099 -0.1320  0.0254
    1W        W35083   4.396  26.308   1.377 -0.1240 -0.0234  0.0566
    1W        W35084  11.034  12.003   2.600  0.4598 -0.3256 -0.0673
    1W        W35085  18.658   9.244   9.223 -0.1919  0.0164  0.0757
    1W        W35086   4.518   7.090   7.764 -0.1163  0.0354 -0.1600
    1W        W35087   9.121   8.648   7.942  0.0410  0.1015 -0.0559
    1W        W35088  26.953  26.074   9.422 -0.1219 -0.0212  0.0983
    1W        W35089  11.275  20.210   9.639  0.0479 -0.2053 -0.1451
    1W        W35090  19.697  14.796   1.142 -0.0690 -0.0595  0.0631
    1W        W35091  10.717  19.110   7.644 -0.1509 -0.3185 -0.0998
    1W        W35092   9.862   9.460   0.535 -0.0074  0.3476 -0.1222
    1W        W35093  21.732   7.710   3.770  0.0566 -0.3778  0.2604
    1W        W35094  28.392   6.391   7.820  0.3107  0.0537 -0.0383
    1W        W35095  25.822  17.757   9.190 -0.0123 -0.1705 -0.1582
    1W        W35096   3.904  27.220   8.692 -0.0762  0.2269 -0.2358
    1W        W35097  19.946  22.925   2.708  0.1172 -0.2129  0.1624
    1W        W35098  11.837  19.757   1.968  0.0054  0.0275  0.0283
    1W        W35099   0.946  26.330   1.783  0.1076  0.0252  0.1956
    1W        W35100  17.659  19.684   8.792  0.5800  0.0233  0.2288
    1W        W35101  27.436  12.606   1.951 -0.3518  0.0815  0.1186
    1W        W35102  26.809   5.297   6.249  0.1016 -0.1583  0.1594
    1W        W35103  16.718   5.589   3.359 -0.0214 -0.0235  0.0003
    1W        W35104  25.045   7.616   1.787 -0.1616  0.0575  0.0442
    1W        W35105  24.190   5.534   2.889  0.0870 -0.0519  0.0064
    1W        W35106  28.034  27.062   8.548  0.0165 -0.0777  0.2069
    1W        W35107  21.973  25.597   1.389  0.1473  0.0250 -0.1653
    1W        W35108  18.860  15.862   9.488  0.3091  0.0090  0.0308
    1W        W35109  27.933  12.819   2.167  0.0132 -0.0876  0.1574
    1W        W35110  20.946   7.977   1.701  0.2614 -0.0757 -0.1566
    1W        W35111   0.925  10.372   1.567 -0.4220 -0.0086  0.1264
    1W        W35112  15.665  10.415   8.471  0.1194  0.2242 -0.0112
    1W        W35113  17.262  23.701   1.788 -0.0415  0.1369 -0.0067
    1W        W35114  25.110   2.477   2.385 -0.3501 -0.1178  0.2804
    1W        W35115  22.911  20.237   9.066  0.1200  0.0687  0.1307
    1W        W35116  24.733  20.935   1.594 -0.0071  0.2667  0.2402
    1W        W35117  15.383  26.579   2.174  0.0952  0.3282 -0.1629
    1W        W35118  28.801  18.657   3.584  0.0633  0.1671 -0.2227
    1W        W35119   1.262  27.949   1.354 -0.1582  0.1400  0.0107
    1W        W35120   7.723  21.651   2.008  0.0113  0.0519 -0.0625
    1W        W35121   3.402   7.253   0.725  0.0321 -0.2383 -0.2255
    1W        W35122   4.728  18.983   6.158  0.4652 -0.3388  0.3871
    1W        W35123   2.093  13.977   6.674  0.1969  0.1270  0.0219
    1W        W35124  17.038   3.805   0.883  0.2212 -0.1558  0.0939
    1W        W35125   1.444  17.762   9.010  0.1794  0.0106 -0.1056
    1W        W35126   0.416  25.081   0.948  0.2641 -0.3837  0.0812
    1W        W35127  13.167  22.525   8.805  0.0932 -0.1586  0.0793
    1W        W35128  28.024  24.219   8.097  0.1968 -0.1586  0.2037
    1W        W35129  23.290   8.084   8.194  0.1204  0.0266  0.4339
    1W        W35130  20.668  19.345   1.179 -0.1002 -0.1849 -0.1333
    1W        W35131  12.355   5.579   7.898 -0.1298  0.2663  0.2199
    1W        W35132  16.326   8.276   1.423 -0.0179 -0.2002 -0.0750
    1W        W35133  16.540   5.838   1.462  0.0694 -0.2540  0.2440
    1W        W35134  27.031  15.084   9.427 -0.1532 -0.1310 -0.1725
    1W        W35135   7.137   1.057   0.927  0.1221 -0.2162  0.1136
    1W        W35136   3.756  21.015   0.508 -0.0997 -0.0913  0.0920
    1W        W35137  10.427  27.444   8.023  0.2561 -0.2236 -0.1490
    1W        W35138  14.816   2.425   2.547 -0.2172 -0.1011 -0.2019
    1W        W35139   1.225   1.448   2.259  0.0801  0.2404  0.1916
    1W        W35140  13.806  25.403   7.311  0.0741 -0.2421  0.1471
    1W        W35141   2.841  26.191   7.221 -0.1311 -0.0716 -0.1373
    1W        W35142   6.310  13.512   7.972  0.2199 -0.1291  0.0776
    1W        W35143  21.694  25.603   0.390  0.0589 -0.0547  0.0642
    1W        W35144  13.882  26.096   3.221  0.0102 -0.1910 -0.3325
    1W        W35145   2.712  13.644   9.179  0.0502  0.0665  0.2805
    1W        W35146   3.847   7.958   1.749  0.3074 -0.1515 -0.1032
    1W        W35147  16.250   9.833   0.953  0.2387 -0.0501 -0.4631
    1W        W35148   0.543   3.222   6.653  0.0074  0.0579  0.4015
    1W        W35149  26.221   3.752   8.481  0.2499  0.6680  0.2447
    1W        W35150  19.635  14.317   9.651  0.1689  0.0667  0.0398
    1W        W35151  11.187  24.754   0.430 -0.0414  0.1468  0.2100
    1W        W35152   5.231  24.892   5.686 -0.3060 -0.1374  0.1725
    1W        W35153   6.213   0.382   1.434  0.0753 -0.0841  0.1732
    1W        W35154  17.179  12.744   8.121  0.2483  0.0630 -0.0360
    1W        W35155  11.736  23.112   8.808 -0.0523 -0.0067  0.1607
    1W        W35156  19.382  16.739   7.809 -0.1089 -0.3947 -0.0799
    1W        W35157   3.734  20.908   7.750 -0.0385  0.0341  0.0010
    1W        W35158   0.224   0.577   7.824  0.1629  0.1823 -0.1504
    1W        W35159  10.348  29.241   2.550 -0.2101  0.1263 -0.2854
    1W        W35160  19.279  29.031   1.974 -0.1761  0.1666 -0.1597
    1W        W35161  17.878  17.910   1.191 -0.0186 -0.2016  0.4137
    1W        W35162  24.808  29.191   8.932  0.1263  0.1395  0.0361
    1W        W35163  12.086   0.352   8.483  0.3461  0.1656 -0.3008
    1W        W35164   1.854  18.553   9.556 -0.0369 -0.1467  0.0159
    1W        W35165  25.785  15.169   6.774 -0.1145  0.2904  0.0272
    1W        W35166   8.665  24.153   7.902 -0.0398 -0.1369 -0.2417
    1W        W35167  28.109   2.340   2.872  0.1539 -0.0058 -0.3095
    1W        W35168   8.728   3.020   7.525 -0.0333 -0.2849 -0.0249
    1W        W35169  14.830  28.012   3.354 -0.0043 -0.0613 -0.0306
    1W        W35170  22.293   3.424   7.665  0.0822  0.1419 -0.4872
    1W        W35171  21.067  11.827   9.313 -0.0548  0.4681 -0.1925
    1W        W35172  21.309   3.484   9.005  0.0279  0.0602  0.1643
    1W        W35173   9.438  20.080   7.046  0.1685 -0.0708  0.0065
    1W        W35174  26.858  18.141   6.612  0.4230 -0.1435  0.0609
    1W        W35175  13.575  15.902   1.995  0.1126  0.0433 -0.0087
    1W        W35176  18.212  12.479   0.041 -0.2817  0.1517  0.0687
    1W        W35177  22.962  25.430   9.539  0.1250  0.1637 -0.1751
    1W        W35178  19.310  20.493   8.534  0.0924  0.0280 -0.0383
    1W        W35179  10.614   7.887   1.931 -0.0140  0.1311 -0.1876
    1W        W35180   3.296  21.765   9.584  0.0216  0.3764  0.1105
    1W        W35181  27.247  28.388   9.523 -0.4689  0.1864  0.0446
    1W        W35182  10.589  15.030   2.089 -0.2997  0.2890 -0.5013
    1W        W35183  14.988   7.361   7.716 -0.1275 -0.0956 -0.2884
    1W        W35184   3.707  24.817   7.356  0.4036  0.0073 -0.1339
    1W        W35185  29.294  26.620   8.951 -0.3751  0.1385  0.1787
    1W        W35186  19.946  20.147   1.435 -0.1056 -0.0817  0.2896
    1W        W35187  24.010  12.047   2.271 -0.1696 -0.1819  0.2490
    1W        W35188  20.100   5.832   0.168  0.0039 -0.0307  0.2936
    1W        W35189  17.017  21.635   0.803  0.2258  0.1575 -0.0078
    1W        W35190   5.613  10.850   2.613  0.1031  0.1246  0.0839
    1W        W35191  18.987  27.031   7.701  0.1705  0.0139 -0.0366
    1W        W35192  11.944  18.743   9.199  0.1818 -0.0702  0.0248
    1W        W35193  28.730   3.561   7.521  0.1111  0.0950  0.3914
    1W        W35194  28.694  24.564   7.338 -0.1794 -0.2828  0.0176
    1W        W35195   9.065   6.518   2.497 -0.1673 -0.1177 -0.0172
    1W        W35196   9.355  10.142   8.368  0.4317 -0.2388  0.1489
    1W        W35197  13.226  18.576   1.774 -0.0794 -0.1670 -0.1146
    1W        W35198   2.730   1.767   9.108 -0.0382  0.0274  0.2381
    1W        W35199   6.562  24.717   6.905 -0.0033 -0.0672 -0.3545
    1W        W35200  29.114  21.718   8.958  0.1545  0.0476  0.1567
    1W        W35201  28.483  28.328   2.709  0.1427  0.1168  0.3113
    1W        W35202  13.261  26.938   0.811  0.1931  0.0540  0.2796
    1W        W35203   3.695  21.436   6.537  0.0456  0.0208  0.2789
    1W        W35204   3.330  12.025   8.726 -0.2206  0.2456 -0.0601
    1W        W35205   5.280  14.571   8.039 -0.1617 -0.1105 -0.0890
    1W        W35206  19.516  23.572   0.363  0.0131  0.2386  0.0136
    1W        W35207  24.075   7.881   7.256  0.1222 -0.0742  0.0141
    1W        W35208   3.142   5.631   7.066 -0.0448  0.1408  0.2083
    1W        W35209  10.239   4.095   1.224 -0.1065 -0.2384  0.0236
    1W        W35210   7.516  10.553   2.907  0.0684  0.2597 -0.0497
    1W        W35211   8.129   9.276   2.048  0.1717  0.1049  0.0317
    1W        W35212  17.202  26.784   8.111 -0.0135 -0.0560  0.0635
    1W        W35213   2.343  14.169   7.596  0.0306 -0.0807 -0.2854
    1W        W35214  13.934  22.092   0.604  0.0577  0.0216 -0.0539
    1W        W35215  12.737  17.450   8.640  0.1444  0.0136  0.3067
    1W        W35216   9.903  22.413   2.616 -0.2163  0.1385  0.2163
    1W        W35217  26.976   4.716   1.744  0.0715 -0.2405 -0.1493
    1W        W35218  13.592   0.608   4.232 -0.0605  0.2298  0.0544
    1W        W35219  26.417  15.333   0.417  0.0380 -0.1085  0.0286
    1W        W35220  26.808  13.046   7.119 -0.1481 -0.0997 -0.0582
    1W        W35221   0.076  23.112   8.540 -0.3455  0.1609 -0.1808
    1W        W35222  14.039   9.460   8.764 -0.0432 -0.2036 -0.2053
    1W        W35223  24.731  27.313   8.502 -0.0518  0.2268  0.0529
    1W        W35224  18.164  26.599   7.961  0.1593 -0.1501  0.5100
    1W        W35225  22.277  28.269   0.653 -0.1067 -0.1470 -0.3395
    1W        W35226   6.506  21.058   8.510 -0.2899 -0.1611  0.2633
    1W        W35227  24.430  22.315   6.953 -0.1104 -0.2636  0.1129
    1W        W35228  21.352   1.550   6.763 -0.1515 -0.0083  0.1945
    1W        W35229  12.754   4.337   2.398  0.1400 -0.0197  0.0873
    1W        W35230  11.673   8.782   8.554  0.0446 -0.0581  0.2370
    1W        W35231   2.077  17.435   5.443 -0.5149 -0.1174  0.1130
    1W        W35232  27.219   7.494   9.431 -0.0224 -0.0597 -0.0654
    1W        W35233  12.612   9.845   8.376 -0.1266  0.0079 -0.0341
    1W        W35234   3.640   3.539   8.590  0.0052  0.3861 -0.0887
    1W        W35235  25.600  17.020   7.519  0.1775  0.0312  0.2564
    1W        W35236  25.502   7.329   6.707 -0.0869 -0.0711 -0.0636
    1W        W35237   7.868  29.140   8.501  0.0351 -0.2155  0.2790
    1W        W35238  16.751   1.706   1.572 -0.3988  0.2332 -0.2250
    1W        W35239  15.612  27.859   7.645 -0.0652 -0.3997 -0.1243
    1W        W35240  22.760  28.060   1.963  0.2655  0.0705 -0.0988
    1W        W35241  26.445  12.246   8.571 -0.0683 -0.0295  0.1773
    1W        W35242  21.378  27.448   7.115 -0.3215  0.0202  0.2025
    1W        W35243  22.035   2.975   7.031 -0.3308 -0.0806  0.2115
    1W        W35244  26.516   7.746   9.049 -0.0294  0.0054 -0.0621
    1W        W35245  12.830  21.240   0.586  0.1918 -0.2004 -0.2755
    1W        W35246   9.811   2.132   1.770  0.0162 -0.1559 -0.0386
    1W        W35247   1.517   1.914   7.382  0.0416  0.3715 -0.1134
    1W        W35248  27.610   3.117   0.091 -0.1423 -0.1788  0.1993
    1W        W35249   9.835   3.015   8.102  0.1194  0.1299 -0.1574
    1W        W35250  19.750  18.712   9.251 -0.1433 -0.0763  0.0604
    1W        W35251  10.716  10.732   7.571  0.1553  0.1023  0.2902
    1W        W35252  22.018  25.281   9.342  0.0654 -0.3082  0.0730
    1W        W35253  27.503  22.974   1.658 -0.1040 -0.2585  0.0661
    1W        W35254  26.486  25.695   2.689  0.2694 -0.1254 -0.2423
    1W        W35255  12.962  15.546   8.119 -0.1450 -0.3691 -0.1537
    1W        W35256  20.296  16.037   1.062 -0.2383 -0.1071  0.1869
    1W        W35257  27.977   9.391   9.493 -0.0895 -0.1249  0.0666
    1W        W35258   6.189  28.831   9.344 -0.2547  0.0717  0.0333
    1W        W35259   4.712   4.484   2.883 -0.0969 -0.2901 -0.2555
    1W        W35260   7.988   0.909   2.070  0.4609  0.3184  0.2288
    1W        W35261  13.216  12.963   7.924 -0.2482 -0.1027 -0.1078
    1W        W35262  19.148   7.692   8.458  0.1326  0.1116  0.1400
    1W        W35263  11.417  11.388   0.005  0.2765 -0.1139 -0.0254
    1W        W35264  17.712  14.305   1.072  0.0127  0.0405  0.1237
    1W        W35265  16.422   5.354   7.768  0.0193  0.2175 -0.0648
    1W        W35266  27.169   7.134   0.943 -0.2220  0.1610  0.0990
    1W        W35267  18.982  21.307   2.305 -0.0893  0.0524 -0.4560
    1W        W35268  12.837   8.702   0.436 -0.0734 -0.0355  0.0043
    1W        W35269  16.375  12.104   8.274 -0.0068 -0.2039 -0.1709
    1W        W35270  11.999  17.061   0.618 -0.0472  0.3878 -0.0315
    1W        W35271   1.805  10.976   8.890  0.0883  0.0435  0.0008
    1W        W35272   4.155  20.965   1.545 -0.3164  0.0313 -0.2194
    1W        W35273  17.079  23.649   7.922  0.1426 -0.3204 -0.4222
    1W        W35274  19.025  10.491   8.061 -0.1297 -0.0082 -0.3142
    1W        W35275  14.553   3.236   0.673  0.1733  0.3590 -0.3969
    1W        W35276  27.135   6.912   8.863  0.0289 -0.1190 -0.2702
    1W        W35277  21.664  19.484   8.000  0.0074  0.0409  0.1994
    1W        W35278  12.558  24.713   1.486 -0.1962  0.2872  0.0305
    1W        W35279  27.181  28.280   0.710 -0.4647 -0.0127  0.5521
    1W        W35280   7.026  10.576   8.140  0.1523 -0.0337 -0.1001
    1W        W35281   7.385  12.098   1.084 -0.1416 -0.1490 -0.1142
    1W        W35282  21.172   1.212   5.445  0.1262 -0.1406 -0.1123
    1W        W35283   7.299  12.808   8.541  0.2288  0.1078  0.1377
    1W        W35284  11.760  14.509   7.308 -0.0493  0.1043  0.1705
    1W        W35285  18.427   1.928   8.764 -0.4486  0.1534 -0.1055
    1W        W35286   1.790  27.056   7.408 -0.2210  0.3870 -0.0248
    1W        W35287  13.138  15.305   7.579  0.2388  0.2174  0.1052
    1W        W35288  17.323  23.566   2.306  0.2831 -0.2381 -0.2391
    1W        W35289  14.241   7.948   1.320 -0.1351  0.1414  0.1724
    1W        W35290  21.332  21.233   0.893 -0.1914  0.1295  0.1088
    1W        W35291  24.928  20.229   7.214  0.0647 -0.2925  0.1124
    1W        W35292   1.176   9.093   1.489 -0.2961  0.3259 -0.1667
    1W        W35293  13.163  29.303   1.675  0.1098 -0.0526  0.1323
    1W        W35294   7.079   1.343   7.193  0.0397 -0.2787 -0.1539
    1W        W35295   0.879   9.301   1.789  0.2258 -0.1773  0.1484
    1W        W35296  12.175   1.971   8.901  0.1006 -0.0418  0.1674
    1W        W35297  17.634  22.180   2.812 -0.0562  0.1647  0.1663
    1W        W35298  25.405   6.290   0.382 -0.1053 -0.1310 -0.3602
    1W        W35299  17.980   4.679   7.970  0.2416  0.3708 -0.3920
    1W        W35300   8.321   8.688   0.993 -0.0945 -0.1336 -0.1157
    1W        W35301  21.778  25.571   8.398 -0.1143 -0.0815 -0.4248
    1W        W35302   4.906  18.070   3.069 -0.1109 -0.0724  0.2231
    1W        W35303  21.147   0.859   1.241 -0.0920  0.1122 -0.1342
    1W        W35304   9.236  10.994   0.008 -0.0692 -0.4356  0.0578
    1W        W35305  15.859  24.542   7.463 -0.5404  0.0985  0.1871
    1W        W35306  27.547  17.152   2.269 -0.0471 -0.0665  0.2401
    1W        W35307   6.754  14.057   1.574 -0.2375  0.1226 -0.1713
    1W        W35308   3.535  24.148   7.368  0.1963  0.2787 -0.0955
    1W        W35309  13.021  17.658   9.037  0.0489  0.0070 -0.0975
    1W        W35310  27.756  14.358   6.137  0.1044 -0.0773 -0.2028
    1W        W35311  14.014  18.740   6.924  0.0689 -0.0304  0.3028
    1W        W35312   8.531  13.487   8.886  0.2891  0.1340 -0.0514
    1W        W35313  28.724  25.003   7.480  0.1395 -0.2538  0.2222
    1W        W35314  17.803  24.483   1.104 -0.0788  0.0161 -0.1486
    1W        W35315  19.074  16.133   2.224 -0.0858 -0.1571  0.1977
    1W        W35316   7.957  11.187   1.586  0.2159 -0.1679  0.3182
    1W        W35317  19.738   1.166   0.809 -0.1303 -0.1455  0.0342
    1W        W35318   9.053   3.783   1.272  0.2126  0.2113 -0.1211
    1W        W35319   1.363  24.935   1.977  0.1914  0.2870  0.0211
    1W        W35320  21.472  20.212   8.632 -0.0463 -0.1912 -0.3657
    1W        W35321   0.398  12.595   1.755  0.2095  0.3708  0.0691
    1W        W35322  25.338  13.230   7.932  0.1895  0.2286 -0.1783
    1W        W35323  29.163  17.800   6.875  0.0842  0.0564  0.3149
    1W        W35324  28.378   9.627   9.216  0.0410  0.2662 -0.0444
    1W        W35325  14.064  24.082   2.946 -0.2451  0.2503 -0.0369
    1W        W35326  20.475  24.806   2.835 -0.1954  0.0360 -0.4578
    1W        W35327   3.603  20.388   5.974  0.2696  0.3909 -0.2951
    1W        W35328   1.699  16.663   7.617  0.0593 -0.0846  0.0438
    1W        W35329  19.823  18.309   2.638  0.0117 -0.1389 -0.1221
    1W        W35330  27.455  12.807   7.238  0.4109 -0.1454  0.2056
    1W        W35331  21.253  16.344   1.288  0.2966  0.2713 -0.1039
    1W        W35332   8.189  10.622   8.111 -0.1678  0.1452  0.0176
    1W        W35333  13.374  27.498   9.665  0.1251  0.2101 -0.2457
    1W        W35334   7.117  28.680   3.815 -0.2710  0.0165  0.0354
    1W        W35335  20.011   4.838   0.025 -0.2530 -0.1343  0.0388
    1W        W35336   2.443   0.253   1.654  0.1863 -0.0055 -0.2199
    1W        W35337  24.452  17.978   9.588  0.0373  0.0586 -0.4516
    1W        W35338  20.416   0.026   6.721 -0.3117 -0.1943 -0.2420
    1W        W35339   6.611  24.034   1.970 -0.1306 -0.3177 -0.2057
    1W        W35340  20.775  18.569   0.552 -0.3728 -0.0812  0.1132
    1W        W35341  10.167   7.140   8.283 -0.1792 -0.1845 -0.0791
    1W        W35342  25.612   3.670   6.964  0.1709  0.4854 -0.0287
    1W        W35343  17.326  13.546   8.643 -0.0418 -0.3041  0.1395
    1W        W35344   8.254   4.763   9.285  0.0007 -0.0553  0.0390
    1W        W35345  10.638  20.880   8.474 -0.0355  0.0666 -0.2179
    1W        W35346   2.672  10.605   1.524  0.0413  0.2148  0.1363
    1W        W35347  16.714   4.303   8.702  0.1080  0.0880 -0.3795
    1W        W35348   4.126  19.588   9.055  0.0467  0.4262 -0.1157
    1W        W35349  13.288  19.429   9.452  0.4387  0.3199 -0.1418
    1W        W35350   6.026   4.206   8.011  0.1658 -0.0125 -0.0181
    1W        W35351   3.639   2.450   0.439 -0.1859  0.1026 -0.0503
    1W        W35352   4.245  10.912   1.775 -0.2081 -0.0675 -0.2112
    1W        W35353   5.242  13.984   2.548 -0.4598  0.0389  0.1023
    1W        W35354  15.587  29.326   9.602  0.1274 -0.1099  0.0229
    1W        W35355  23.678  19.189   8.212 -0.0240  0.0424  0.1249
    1W        W35356   2.630  14.584   8.785 -0.2529  0.0412  0.1842
    1W        W35357   2.083  21.725   7.574 -0.1246  0.0845  0.3979
    1W        W35358  16.028  23.996   2.902  0.0673  0.1848  0.2803
    1W        W35359  26.159   5.826   2.731 -0.1104  0.2121 -0.0686
    1W        W35360   6.938   1.548   8.105  0.1473  0.0619 -0.1412
    1W        W35361  15.214  15.314   0.455 -0.0064  0.0246  0.1037
    1W        W35362  20.375  16.786   1.769 -0.1042  0.1691  0.0745
    1W        W35363  13.779  25.335   0.504  0.0195 -0.0052 -0.2450
    1W        W35364   1.834  11.039   7.811 -0.0634  0.2683 -0.0352
    1W        W35365  20.816   5.968   6.576  0.1524  0.2506  0.0968
    1W        W35366  28.543  12.778   9.518 -0.1269  0.0071  0.1689
    1W        W35367  23.327   9.804   8.960  0.0683 -0.0928  0.1251
    1W        W35368   4.524  18.308   6.489  0.1613  0.1255 -0.0568
    1W        W35369  14.942  14.085   1.189 -0.0125  0.0789  0.0464
    1W        W35370   3.008   1.838   0.718 -0.2041  0.1217  0.1251
    1W        W35371  25.735  27.361   0.618  0.0301 -0.0624  0.2151
    1W        W35372   7.826  27.915   0.383 -0.1779 -0.1620 -0.2211
    1W        W35373  15.217   3.872   8.683 -0.2533  0.0676 -0.2107
    1W        W35374  18.561  11.226   1.531 -0.3827 -0.0923 -0.0573
    1W        W35375  12.433  27.055   9.112 -0.1584 -0.0161  0.0862
    1W        W35376  16.876  18.202   7.567 -0.2069 -0.0194 -0.1363
    1W        W35377  26.631  29.069   8.717  0.3226 -0.1142  0.0461
    1W        W35378  10.694   5.646   9.457 -0.3325  0.2062 -0.2355
    1W        W35379   6.855  24.993   2.484  0.1801 -0.0799  0.1319
    1W        W35380  23.326   1.903   6.851 -0.3057 -0.1583 -0.0372
    1W        W35381  12.415   4.469   0.187  0.0734  0.3758  0.1050
    1W        W35382  14.576  22.677   0.931  0.2906 -0.1716  0.0388
    1W        W35383   3.826  25.498   0.914 -0.0013  0.2113  0.3632
    1W        W35384   4.170  12.924   9.180 -0.1136  0.0622  0.0405
    1W        W35385  11.089  22.137   7.785  0.0793  0.0883  0.0655
    1W        W35386  24.725  14.518   9.309  0.0936 -0.0164  0.2657
    1W        W35387  28.416   3.531   8.825  0.2195 -0.1334 -0.2043
    1W        W35388  28.458  23.193   1.129  0.2587  0.2104 -0.2301
    1W        W35389   5.400  19.982   1.292  0.3077 -0.1123 -0.1682
    1W        W35390   4.403  14.519   7.086 -0.0356 -0.4037  0.1069
    1W        W35391   2.466  17.075   1.883  0.1282 -0.0613 -0.1702
    1W        W35392   8.598   6.373   7.035  0.0825 -0.0503 -0.1957
    1W        W35393  23.581  18.467   0.232  0.1876 -0.1888 -0.0614
    1W        W35394  10.736  22.393   1.348 -0.2489 -0.1231  0.0384
    1W        W35395   0.441   9.194   0.840  0.0015  0.2927 -0.0403
    1W        W35396  27.219   4.873   0.900  0.2181 -0.0058  0.0613
    1W        W35397  27.006  15.597   9.356  0.0358  0.2663  0.1515
    1W        W35398  24.574   5.563   1.471 -0.0161 -0.0148 -0.1261
    1W        W35399  23.305   3.938   8.086  0.0076 -0.4275  0.1304
    1W        W35400   0.062  21.300   1.722  0.0074  0.1634 -0.0440
    1W        W35401   9.447  24.778   7.434  0.0057  0.0609 -0.1149
    1W        W35402   1.434  15.160   8.511 -0.2605 -0.0021  0.0917
    1W        W35403  28.393   4.937   2.163  0.2088 -0.1587  0.2661
    1W        W35404  10.326  28.742   2.722  0.0928 -0.1266 -0.1102
    1W        W35405   4.173  19.251   1.253 -0.1183 -0.1495  0.0018
    1W        W35406  26.390  14.170   5.989 -0.4250 -0.2828  0.2475
    1W        W35407  26.948  25.028   1.568 -0.1252 -0.0116 -0.0088
    1W        W35408  23.314  20.547   8.145 -0.1655  0.0236  0.0007
    1W        W35409  13.809   0.875   3.152  0.1166  0.1164 -0.4818
    1W        W35410   7.426  25.178   1.132  0.1730 -0.0905  0.0855
    1W        W35411  23.362   8.903   0.422  0.0640  0.0539 -0.3752
    1W        W35412  17.580  29.149   0.934 -0.0100  0.0323  0.1366
    1W        W35413  24.957  10.704   0.392  0.2721  0.1589  0.2615
    1W        W35414  23.019  14.028   0.746 -0.1083 -0.1316  0.2247
    1W        W35415  25.204  27.167   8.427 -0.1371  0.0542  0.2475
    1W        W35416   3.997  14.899   8.354  0.0529  0.1050 -0.0931
    1W        W35417  17.996  22.578   8.508  0.1002 -0.1797  0.2278
    1W        W35418  10.875  22.487   0.060  0.2558 -0.2280  0.0727
    1W        W35419   5.238  15.003   8.737 -0.0735  0.2134  0.0479
    1W        W35420  18.213   3.844   2.068 -0.2095  0.1464  0.1323
    1W        W35421  16.366  20.354   8.363  0.4877 -0.0732 -0.0994
    1W        W35422   1.000   8.450   1.048  0.1208 -0.1661  0.1610
    1W        W35423  27.155   3.048   7.168 -0.1389  0.0187  0.0815
    1W        W35424   9.612   2.084   7.327  0.2362  0.0400 -0.1982
    1W        W35425  20.061  17.200   1.810  0.3465  0.0459 -0.1230
    1W        W35426   3.128   5.570   1.780 -0.0600  0.0762 -0.1579
    1W        W35427  28.751   5.306   7.761  0.0402 -0.1354  0.0818
    1W        W35428  14.780  19.137   1.498  0.0621 -0.2212 -0.1229
    1W        W35429   5.367  26.976   6.449  0.2459 -0.0755 -0.2729
    1W        W35430  23.709   5.805   0.296  0.0692  0.3495  0.0971
    1W        W35431   4.487   9.427   6.802 -0.1909 -0.0673  0.2320
    1W        W35432   1.356  12.979   0.012 -0.2838  0.2251 -0.1663
    1W        W35433  23.959   4.624   9.687 -0.0789  0.3445 -0.0522
    1W        W35434   5.058   8.637   1.699  0.0387 -0.0756 -0.0161
    1W        W35435   8.403  11.701   0.787 -0.0449  0.0476 -0.1062
    1W        W35436  11.553  16.312   7.646  0.0197 -0.0883 -0.0096
    1W        W35437  11.912  15.071   8.907 -0.1745 -0.3401  0.1058
    1W        W35438  24.756   4.849   2.681 -0.0212 -0.0671 -0.0648
    1W        W35439  28.192  27.855   0.916  0.2683  0.3448  0.0913
    1W        W35440   0.684  15.441   1.469 -0.0782  0.0822  0.1854
    1W        W35441   9.305  13.562   7.559  0.2097  0.1619 -0.0949
    1W        W35442  11.623   3.404   2.326 -0.0293 -0.3041  0.0233
    1W        W35443  23.745   2.159   7.415  0.0454  0.1115 -0.2007
    1W        W35444  12.092  26.660   2.050 -0.0206 -0.2445 -0.0202
    1W        W35445   8.192   0.590   2.500  0.3824 -0.0286  0.0065
    1W        W35446  13.890  26.340   7.485  0.3234  0.1015 -0.0392
    1W        W35447  14.107   7.820   8.993  0.1403 -0.2387 -0.1721
    1W        W35448  27.206  20.486   6.880  0.0279 -0.0382  0.0985
    1W        W35449  15.052   7.682   2.108 -0.3826  0.1338  0.0762
    1W        W35450  29.128   7.107   9.404 -0.0084 -0.1445  0.0927
    1W        W35451   5.698  14.483   1.368  0.1390  0.2406  0.0336
    1W        W35452  20.526  14.652   0.620 -0.1614  0.0022  0.0526
    1W        W35453   5.177  18.982   5.956  0.0068 -0.2317  0.1110
    1W        W35454   8.729  21.228   9.025  0.0781  0.1156 -0.0810
    1W        W35455  27.884  17.586   1.585  0.0398 -0.2076  0.0822
    1W        W35456  13.114   9.713   7.761  0.0835 -0.2087 -0.0763
    1W        W35457   9.385  21.517   0.053  0.1750  0.1071 -0.0689
    1W        W35458   2.569  21.016   7.251 -0.4334  0.0175  0.1493
    1W        W35459   4.614  25.421   1.382 -0.0982  0.3628  0.0299
    1W        W35460  23.696   8.299   9.274  0.0668  0.1795  0.1341
    1W        W35461   7.282  21.992   9.610  0.0913 -0.1812 -0.0030
    1W        W35462  13.277  16.573   0.322  0.0770  0.2242  0.1079
    1W        W35463  12.799  11.732   2.300 -0.2337 -0.0422  0.0019
    1W        W35464  22.909  21.835   8.894  0.0407 -0.1931  0.2337
    1W        W35465  19.980  22.411   7.801  0.0271  0.0860  0.0463
    1W        W35466  28.225  19.219   9.340 -0.0079 -0.0175  0.2226
    1W        W35467  15.435   4.211   8.392  0.3176 -0.2799 -0.4083
    1W        W35468   0.583   4.476   0.379 -0.0462  0.4935 -0.3245
    1W        W35469  14.979  28.559   8.654  0.0592  0.0530  0.2600
    1W        W35470  26.970  23.447   8.617  0.2525 -0.0233 -0.3073
    1W        W35471   1.128   7.304   2.647  0.2114 -0.1160 -0.0137
    1W        W35472  16.621  14.703   9.646  0.1520  0.2290 -0.2189
    1W        W35473  25.533  27.424   8.161 -0.0707 -0.3101  0.2567
    1W        W35474  18.191  15.927   8.709  0.0712  0.1997 -0.2259
    1W        W35475  22.548  18.261   2.156  0.0600  0.1411  0.1264
    1W        W35476  27.544  21.592   1.477  0.1978 -0.1102 -0.0807
    1W        W35477  16.283   9.800   8.674  0.1803 -0.1499 -0.2295
    1W        W35478   3.341   7.906   6.018  0.1434  0.2279 -0.0594
    1W        W35479   7.817   8.375   8.299  0.0585  0.2510  0.0859
    1W        W35480   4.213   4.771   7.236  0.0176  0.0665 -0.1109
    1W        W35481  14.604  28.728   2.789 -0.0830  0.0707  0.1714
    1W        W35482  15.625  12.740   9.367 -0.0581 -0.0766  0.3068
    1W        W35483   4.787  28.446   9.040 -0.0922 -0.3245 -0.0280
    1W        W35484   9.317   5.176   1.845  0.0064  0.0003  0.2143
    1W        W35485   8.388  20.571   2.377 -0.0635 -0.1448  0.0065
    1W        W35486   9.000  22.402   6.634 -0.0177 -0.2143 -0.1383
    1W        W35487  18.622   4.162   2.250  0.1260 -0.2305  0.1596
    1W        W35488   0.620  11.636   3.158  0.1936  0.1966  0.2025
    1W        W35489  28.587  23.615   1.534  0.1275  0.1822  0.2021
    1W        W35490  18.258  14.987   1.354 -0.0402 -0.0133 -0.2607
    1W        W35491  18.573   5.942   0.761 -0.0944 -0.0574 -0.1011
    1W        W35492  26.091   9.466   6.601  0.0130 -0.1037 -0.0298
    1W        W35493  21.276  23.754   1.778  0.0091 -0.0042  0.0584
    1W        W35494   2.820  21.876   0.062  0.2351 -0.2021 -0.1917
    1W        W35495   6.267  14.935   9.644 -0.0526  0.0373  0.1533
    1W        W35496   1.570  27.047   0.632 -0.2551 -0.0899  0.2591
    1W        W35497  13.264  23.504   1.811  0.1570 -0.0325  0.3580
    1W        W35498  22.988  20.073   0.233  0.0528  0.4686  0.3664
    1W        W35499   7.310  20.757   8.876 -0.0859  0.1441 -0.1332
    1W        W35500  14.532  17.592   0.147 -0.3133 -0.0526 -0.2554
    1W        W35501   6.311  28.582   7.240 -0.0501 -0.1369  0.2451
    1W        W35502   6.104  15.017   7.853 -0.0143  0.1550  0.0606
    1W        W35503  15.838  12.567   1.033  0.2821  0.2624  0.1698
    1W        W35504   9.622  20.717   9.422 -0.0552  0.2621  0.0153
    1W        W35505  23.583  25.437   7.240  0.1187 -0.6163 -0.1376
    1W        W35506   2.059  17.477   7.377 -0.0676  0.0189 -0.1224
    1W        W35507  28.454   0.257   2.160 -0.1872  0.2344 -0.1541
    1W        W35508  20.431  15.004   8.664  0.1478  0.1743 -0.1563
    1W        W35509   2.690  23.124   9.167  0.0275 -0.0635 -0.1815
    1W        W35510   1.259   3.648   6.768 -0.0060  0.1657  0.1184
    1W        W35511   4.729  21.651   6.320 -0.0972  0.1760 -0.0248
    1W        W35512  16.416  12.605   0.708 -0.4198 -0.2586  0.2123
    1W        W35513   4.120  27.166   6.633  0.3131 -0.0528  0.0165
    1W        W35514  17.197  12.754   1.760 -0.0572  0.1420 -0.0317
    1W        W35515  27.757   1.933   6.989  0.2507  0.1536  0.0881
    1W        W35516   2.093   9.895   8.037  0.0090 -0.0747 -0.1523
    1W        W35517  22.176   4.759   9.137  0.0331 -0.0038  0.4208
    1W        W35518   6.841  27.041   3.496  0.2520  0.1028  0.1545
    1W        W35519   4.146  20.096   1.993 -0.3144 -0.0626 -0.2350
    1W        W35520   1.931  17.601   2.428 -0.1327  0.0421 -0.0104
    1W        W35521  27.758  19.540   2.823 -0.3155  0.0873  0.0355
    1W        W35522  11.517  23.912   6.165 -0.0042  0.0289 -0.0633
    1W        W35523  24.920   0.191   2.411 -0.0211  0.0773 -0.0785
    1W        W35524  21.957  22.829   2.970 -0.0134  0.0297 -0.0228
    1W        W35525  14.978  10.161   1.256 -0.1759  0.0399  0.1314
    1W        W35526  25.150   3.322   1.549 -0.4958 -0.0430  0.0966
    1W        W35527   6.452   5.917   8.707  0.2874 -0.2172 -0.0211
    1W        W35528  17.023  11.092   0.905 -0.1530  0.2364  0.3378
    1W        W35529  17.841  26.408   1.989 -0.0569  0.1813  0.0422
    1W        W35530   7.628  14.711   1.074  0.0092 -0.2469 -0.2624
    1W        W35531  20.782  25.469   9.600 -0.0837 -0.0367  0.1451
    1W        W35532   5.361  25.000   0.145 -0.0256 -0.0320 -0.0674
    1W        W35533  18.740   7.652   0.496  0.0050 -0.0087  0.1773
    1W        W35534  21.668   8.767   8.054  0.0137 -0.0120  0.1950
    1W        W35535  28.865   2.762   1.792 -0.1743  0.0813 -0.2166
    1W        W35536  15.525   9.019   8.090 -0.1812  0.2345 -0.0924
    1W        W35537  14.108  17.673   7.680 -0.3987 -0.0338 -0.3253
    1W        W35538  29.045   5.251   9.650 -0.0239 -0.2836 -0.2821
    1W        W35539  24.164  28.176   1.461 -0.0105  0.0327  0.0975
    1W        W35540   5.058  18.972   1.969  0.0899  0.0042 -0.1256
    1W        W35541  15.490   4.926   2.235 -0.0887 -0.0117  0.0029
    1W        W35542  18.884   5.323   2.315 -0.1880  0.1480 -0.1167
    1W        W35543  20.101  13.195   8.111 -0.3877 -0.3380 -0.0097
    1W        W35544  27.389   9.594   8.737 -0.0437 -0.0392  0.0224
    1W        W35545  17.184  18.250   8.871 -0.2134 -0.1457  0.2011
    1W        W35546   1.541  19.097   0.600  0.1857  0.0771  0.0895
    1W        W35547   5.187  11.989   2.496 -0.0738  0.0062 -0.0644
    1W        W35548  12.194  10.272   1.151 -0.0557  0.1359 -0.0548
    1W        W35549   5.749  16.098   9.056  0.1102 -0.0901  0.1016
    1W        W35550  25.888   1.672   0.849  0.0940 -0.2820  0.2183
    1W        W35551  21.219  24.156   8.995  0.0888  0.2183 -0.0777
    1W        W35552   9.285  10.537   0.661  0.3163  0.0031  0.2956
    1W        W35553  16.914   8.823   2.664  0.0153 -0.3190 -0.1753
    1W        W35554  10.415  13.491   7.669 -0.0565  0.0332  0.0604
    1W        W35555   3.122  24.229   7.805  0.0625  0.2585 -0.0352
    1W        W35556  15.440  27.348   8.828  0.0193 -0.5609 -0.0148
    1W        W35557  25.954   1.495   8.040  0.0819 -0.2019  0.1480
    1W        W35558   8.584  13.788   1.837 -0.1046  0.1874  0.1452
    1W        W35559  29.347  20.265   8.938  0.0850 -0.1773  0.2798
    1W        W35560  25.891   2.983   6.403  0.0689  0.0370  0.1194
    1W        W35561   5.033  23.525   1.500  0.0323  0.1743 -0.0604
    1W        W35562  21.483  13.976   9.249 -0.0114 -0.1694  0.2645
    1W        W35563  10.021  21.268   0.572 -0.0804  0.6630  0.1206
    1W        W35564  22.691  27.207   8.486  0.0660 -0.0254 -0.0331
    1W        W35565  24.026  12.305   5.538  0.0046 -0.3371 -0.0167
    1W        W35566   6.194   6.035   3.196 -0.0269 -0.1058  0.0409
    1W        W35567   5.264  16.263   8.125 -0.2451  0.0495  0.2555
    1W        W35568  17.644   9.570   0.285 -0.1003  0.1635 -0.3765
    1W        W35569  22.053  23.438   0.509 -0.3003  0.1618 -0.2493
    1W        W35570   8.991   6.348   0.436  0.1577 -0.1337  0.0204
    1W        W35571  21.851  21.100   7.478 -0.1433  0.0898 -0.0246
    1W        W35572   0.482  16.218   0.828  0.0099 -0.1025  0.3387
    1W        W35573  18.501  28.402   1.090 -0.1138  0.0702 -0.1466
    1W        W35574   1.784   0.678   2.164 -0.1581  0.1222 -0.0734
    1W        W35575  16.270   2.983   3.448 -0.0412  0.1069  0.0347
    1W        W35576  23.909  20.963   8.696 -0.1302 -0.0804  0.3494
    1W        W35577   9.976   6.566   1.733 -0.1626  0.1315  0.2714
    1W        W35578   7.575  28.090   8.771  0.2313  0.4516  0.1649
    1W        W35579   8.707  24.466   7.171  0.1070 -0.2460 -0.1357
    1W        W35580  19.201  25.096   6.797 -0.0340  0.4291  0.0957
    1W        W35581  21.482  22.196   7.562 -0.1265  0.3058 -0.0921
    1W        W35582  15.082  28.002   2.466  0.1646  0.2221 -0.0404
    1W        W35583  18.949  27.451   1.074 -0.2168  0.0830  0.2001
    1W        W35584  11.282  20.402   1.627  0.1713  0.0672  0.3132
    1W        W35585   2.068  23.429   7.283  0.0705 -0.0607 -0.1891
    1W        W35586   1.127  27.634   0.951 -0.4215  0.1003  0.2657
    1W        W35587  25.420  20.146   7.404 -0.0552  0.1105 -0.1343
    1W        W35588  12.026   6.927   7.003  0.1617  0.1171 -0.2090
    1W        W35589  13.706  15.535   1.542  0.0782 -0.3051  0.1068
    1W        W35590  24.433   5.447   8.586 -0.1512  0.2078 -0.0308
    1W        W35591  20.647  23.022   9.607  0.4497  0.1363  0.1589
    1W        W35592  27.515   1.546   6.381 -0.1563  0.1901  0.0117
    1W        W35593  23.354  20.321   2.894  0.0034 -0.3770 -0.0674
    1W        W35594  22.360  17.002   9.084  0.0771  0.1132  0.0650
    1W        W35595   8.152   7.062   8.750 -0.0846 -0.1587  0.0136
    1W        W35596  19.339   4.378   1.578 -0.0235  0.0777  0.0859
    1W        W35597  17.276  13.199   9.040 -0.2101 -0.0036  0.0071
    1W        W35598   1.876  29.011   7.297  0.1499 -0.1122 -0.2396
    1W        W35599  23.200  19.291   8.810  0.0114 -0.1863  0.1698
    1W        W35600  24.964  25.742   7.947  0.0155 -0.2973 -0.0461
    1W        W35601   4.848  27.331   3.257 -0.2734  0.1148 -0.1305
    1W        W35602   4.753   9.344   8.207  0.1616 -0.3118 -0.1080
    1W        W35603   5.730  13.819   1.891 -0.1270  0.2451 -0.1121
    1W        W35604  18.644  18.392   0.781  0.0372  0.1632 -0.0875
    1W        W35605   4.361   2.537   8.151 -0.0400  0.2060 -0.1293
    1W        W35606   3.657   9.138   9.169 -0.0937  0.1413  0.2444
    1W        W35607   7.010  10.736   0.665 -0.1598 -0.0698  0.5894
    1W        W35608   1.649  25.252   2.185 -0.1343 -0.0106 -0.4432
    1W        W35609  25.295  21.990   1.103  0.0977 -0.0122  0.1191
    1W        W35610   2.009   0.035   6.760 -0.2647  0.0817 -0.1989
    1W        W35611  28.939  14.617   0.585  0.0816 -0.1998 -0.1116
    1W        W35612   7.481  23.472   6.627 -0.3773 -0.2583  0.0426
    1W        W35613   1.434   6.458   1.453 -0.0752  0.1165  0.0155
    1W        W35614   1.949   5.631   9.625  0.4838 -0.0381 -0.0303
    1W        W35615  14.610  20.528   1.259  0.3239  0.2119  0.1228
    1W        W35616  24.552   4.633   7.022 -0.1571 -0.0535  0.1033
    1W        W35617   4.934   3.637   8.682 -0.0700  0.1665 -0.1507
    1W        W35618   4.042  12.599   8.769 -0.0329 -0.2356 -0.0593
    1W        W35619   1.681  27.366   6.657  0.1285 -0.0467 -0.0327
    1W        W35620   7.232   4.873   8.034  0.0128 -0.0092  0.0488
    1W        W35621  20.223  26.502   0.463 -0.2374  0.0063 -0.0703
    1W        W35622   1.323   2.660   1.643 -0.2512  0.1522  0.3333
    1W        W35623  25.383  15.074   6.444 -0.1100 -0.0385 -0.0745
    1W        W35624  11.850  12.677   1.047  0.0868 -0.1610 -0.3771
    1W        W35625  12.259  29.304   1.792  0.1950 -0.0444 -0.2868
    1W        W35626   2.134   7.648   1.917 -0.0211 -0.1695  0.3529
    1W        W35627  15.953  28.583   1.135  0.3869 -0.1910 -0.2500
    1W        W35628  17.252   8.180   0.338  0.0113  0.0215 -0.0570
    1W        W35629  25.428   4.009   9.576  0.3244 -0.0741 -0.2347
    1W        W35630  12.097  11.830   6.985 -0.1049 -0.1590 -0.1258
    1W        W35631  19.958  26.887   7.790 -0.0784  0.1309  0.0145
    1W        W35632  22.809  15.226   7.295 -0.0837  0.3247 -0.1272
    1W        W35633  25.131   9.880   7.165  0.0565  0.2320  0.1741
    1W        W35634  21.880   6.502   2.121  0.3461 -0.0491  0.0941
    1W        W35635   8.350   5.163   8.233  0.0068  0.1729  0.0435
    1W        W35636   3.313  18.957   1.452 -0.2302 -0.1401 -0.0326
    1W        W35637  16.844  23.513   0.405  0.2054  0.2465 -0.1381
    1W        W35638   8.129  12.377   7.451  0.0130  0.0170  0.1765
    1W        W35639  22.645  12.829   8.034  0.0671 -0.3267  0.0918
    1W        W35640  24.150   1.420   1.562  0.3057 -0.0314 -0.0435
    1W        W35641  17.573  18.577   7.864  0.0418  0.2169 -0.1639
    1W        W35642  23.996  21.428   6.899  0.0953  0.0129 -0.0811
    1W        W35643   0.988  17.602   8.881  0.0781 -0.2176  0.3514
    1W        W35644  10.522   8.275   1.633 -0.1205 -0.0820 -0.1505
    1W        W35645   2.300  21.046   0.612 -0.2895 -0.0069 -0.0752
    1W        W35646  28.161  21.586   9.174 -0.0668 -0.0652  0.0820
    1W        W35647  27.274  15.902   6.612  0.1193  0.0446  0.4042
    1W        W35648   8.825  18.360   2.848  0.2747 -0.2857  0.3591
    1W        W35649  10.696  23.715   1.913  0.1878  0.0610 -0.0952
    1W        W35650   1.583  25.876   8.175 -0.0725 -0.1334  0.0511
    1W        W35651   5.110  14.016   9.290  0.2111 -0.0630 -0.0643
    1W        W35652   9.059   1.875   1.330 -0.1557 -0.1321  0.1711
    1W        W35653  23.653  26.877   3.089  0.1948  0.4217 -0.0777
    1W        W35654  25.545   4.985   0.411  0.3293 -0.0631  0.2821
    1W        W35655  16.919   3.354   1.207 -0.1805 -0.0390 -0.4067
    1W        W35656  18.367  13.122   1.047  0.0023  0.1097 -0.0050
    1W        W35657  28.235  17.704   0.808 -0.1605 -0.1569 -0.1407
    1W        W35658   2.230  17.481   0.537  0.2646  0.4253  0.3271
    1W        W35659  23.115  25.549   7.870 -0.0703  0.0096 -0.0172
    1W        W35660  23.188   5.702   7.462 -0.0755 -0.3146  0.0716
    1W        W35661   1.490  14.368   7.367 -0.3957  0.1086 -0.2159
    1W        W35662   4.629  18.449   8.138  0.2180  0.2081  0.4381
    1W        W35663   6.855  15.491   8.218 -0.0388 -0.1277  0.1287
    1W        W35664  10.659  19.748   6.754 -0.1140  0.2348 -0.1007
    1W        W35665  15.301  20.476   3.129  0.0492 -0.0578  0.0083
    1W        W35666  11.259  28.793   2.731  0.0453  0.0508  0.0821
    1W        W35667  22.480   6.676   7.652  0.1634 -0.3113 -0.1359
    1W        W35668  16.285   1.661   0.496 -0.1602  0.2836 -0.0067
    1W        W35669  19.253   3.768   8.856  0.1944 -0.0728 -0.3942
    1W        W35670  10.071   5.587   4.027  0.2025  0.0163 -0.1987
    1W        W35671   3.177  10.401   2.697  0.0368  0.2389  0.1537
    1W        W35672   5.781   0.993   1.106  0.0687 -0.0506  0.1503
    1W        W35673   3.993  18.958   7.339 -0.3373  0.1177 -0.3724
    1W        W35674   2.435  20.239   2.546 -0.2161  0.2582  0.1537
    1W        W35675   9.139  10.705   2.709  0.2527 -0.1719 -0.0640
    1W        W35676  29.277  23.866   7.426 -0.0858 -0.1305  0.1578
    1W        W35677   6.068  14.098   9.335  0.3989  0.3343  0.1837
    1W        W35678  26.650  15.983   2.494 -0.0933 -0.0744  0.2561
    1W        W35679  24.400   1.981   0.321 -0.0702  0.1265 -0.2625
    1W        W35680  11.023  15.276   8.567 -0.3361 -0.0965  0.1574
    1W        W35681  11.659   4.021   1.760 -0.2479  0.0210 -0.0714
    1W        W35682  28.992   1.602   0.784  0.0922  0.1077 -0.0761
    1W        W35683  11.639   2.565   0.869 -0.1117 -0.0069 -0.3006
    1W        W35684  25.201  18.075   0.823 -0.0856 -0.1895 -0.2189
    1W        W35685  23.510  22.802   7.565  0.1558 -0.0007 -0.5768
    1W        W35686   6.214   8.190   2.375  0.4865  0.2037  0.0374
    1W        W35687   0.554   4.090   0.026 -0.0575  0.3203 -0.1745
    1W        W35688  28.166  14.879   8.788  0.0307  0.3153  0.0606
    1W        W35689  26.289  18.278   5.827  0.0294 -0.1056  0.0967
    1W        W35690  14.054  22.142   6.596  0.0624  0.0196 -0.0016
    1W        W35691  15.239   8.284   7.508  0.0879  0.0139  0.1317
    1W        W35692  13.748  16.420   0.008  0.1464  0.0822  0.1168
    1W        W35693   4.247  26.894   0.998 -0.1328 -0.1125  0.3179
    1W        W35694  24.778  29.283   6.864 -0.0279 -0.2146 -0.2000
    1W        W35695   1.706  27.299   7.837  0.0118 -0.1729  0.2901
    1W        W35696  24.024  15.777   9.503 -0.1691 -0.1399  0.4040
    1W        W35697  28.258   4.292   0.261 -0.1929  0.0208 -0.1249
    1W        W35698  25.869   1.866   2.066  0.0683 -0.2326 -0.0995
    1W        W35699  20.639  24.675   0.813 -0.1729  0.0819  0.0458
    1W        W35700  21.887  13.925   2.042 -0.3504  0.1081  0.0675
    1W        W35701  20.178  20.779   0.066  0.0827  0.0949  0.2422
    1W        W35702   7.266  14.330   7.247  0.3148 -0.3121 -0.1840
    1W        W35703  26.737  18.701   6.465  0.1005  0.1835 -0.0967
    1W        W35704  19.508   0.214   1.778 -0.1229  0.4147  0.1067
    1W        W35705  29.341   4.056   9.164  0.3075  0.0699  0.0441
    1W        W35706   1.821  17.174   8.433 -0.0933 -0.0381 -0.0003
    1W        W35707   6.209  21.669   8.129 -0.1237 -0.1411  0.1156
    1W        W35708   3.978  15.527   7.099 -0.0259 -0.1518 -0.0881
    1W        W35709  23.101  20.110   1.624 -0.2072 -0.0778  0.0347
    1W        W35710  19.459  25.048   9.113  0.2305 -0.1178 -0.3847
    1W        W35711  12.878  10.642   8.029 -0.2738 -0.2564 -0.2441
    1W        W35712  25.441   9.425   7.193  0.1547  0.0421  0.2461
    1W        W35713  28.891   1.367   8.594  0.0987  0.2051 -0.1725
    1W        W35714  10.798   4.976   1.523 -0.0899  0.0759 -0.1632
    1W        W35715  23.243  25.868   1.265 -0.1105  0.0172  0.3564
    1W        W35716  18.173  28.756   8.979  0.0902  0.0004  0.2134
    1W        W35717   2.831   4.597   8.657 -0.2748  0.0726 -0.3834
    1W        W35718  10.316  18.037   1.672 -0.0284 -0.0344  0.1013
    1W        W35719   8.832  14.995   2.082  0.0873 -0.2615  0.1503
    1W        W35720  19.226  14.753   1.664  0.3256 -0.1778 -0.0498
    1W        W35721   3.355  18.507   8.876 -0.1376  0.0025 -0.0440
    1W        W35722  16.092   9.125   7.915 -0.2612 -0.0244  0.2001
    1W        W35723  27.197  20.989   1.884 -0.0122  0.2835  0.0345
    1W        W35724  25.647  11.717   9.663  0.3009  0.2708 -0.0611
    1W        W35725   1.820  26.245   7.450 -0.2129  0.0772  0.1895
    1W        W35726  10.742   3.240   8.038 -0.1678  0.3906  0.0982
    1W        W35727  22.715  25.149   0.177  0.0027 -0.0724 -0.0295
    1W        W35728  21.841  23.334   2.255 -0.1511  0.0807  0.1284
    1W        W35729   1.181  20.564   0.118 -0.1421  0.0488 -0.2374
    1W        W35730   4.546  13.469   1.709  0.2439 -0.0002 -0.1266
    1W        W35731  17.614  12.037   8.197 -0.1279 -0.2353 -0.0717
    1W        W35732  28.197  16.347   6.944  0.0140  0.2169  0.1768
    1W        W35733  21.385  25.852   7.514 -0.1289  0.1772 -0.1689
    1W        W35734  20.577   6.445   7.306 -0.1120 -0.1959  0.1155
    1W        W35735   6.936  21.155   1.926 -0.1995 -0.0398  0.2142
    1W        W35736   3.954  14.740   7.902  0.1087 -0.0048 -0.1745
    1W        W35737  27.804  17.805   8.681 -0.0052 -0.0149  0.0335
    1W        W35738   7.937  27.639   1.273  0.1705  0.2517 -0.1269
    1W        W35739   5.436  18.337   7.706 -0.0834 -0.1205  0.1380
    1W        W35740  23.153  14.297   9.334  0.0333 -0.0416  0.1863
    1W        W35741  12.896   3.821   2.441  0.0600 -0.0934 -0.1875
    1W        W35742  18.061   4.097   2.469 -0.0269 -0.0585  0.2728
    1W        W35743  20.990   2.166   8.334  0.0833  0.1354 -0.0605
    1W        W35744   0.471  11.635   9.083 -0.0840  0.0158  0.2475
    1W        W35745   8.139   9.753   2.326 -0.3123 -0.0688  0.2277
    1W        W35746   0.291  26.263   6.537  0.2140  0.3029  0.0588
    1W        W35747  27.902  26.864   0.751 -0.0800  0.1969 -0.0791
    1W        W35748  18.084  25.208   7.952 -0.0293 -0.1445 -0.0078
    1W        W35749   4.190  21.334   8.883 -0.1777 -0.2444 -0.1821
    1W        W35750   0.053  12.216   2.057  0.2064  0.1309 -0.4459
    1W        W35751  26.837  10.102   0.029  0.1176 -0.0134 -0.1192
    1W        W35752   3.135   3.054   9.294  0.0773  0.1438 -0.4721
    1W        W35753   4.716  28.238   7.693  0.3819 -0.0558  0.1432
    1W        W35754  24.501   0.381   6.916  0.0715  0.1887  0.1031
    1W        W35755   0.843  17.700   7.231  0.0067  0.0469 -0.1267
    1W        W35756  24.546   9.830   7.578  0.1856  0.1501 -0.0561
    1W        W35757   2.347  15.623   1.258  0.1510 -0.0305  0.1345
    1W        W35758  26.713   0.340   2.315  0.0182 -0.3088 -0.2521
    1W        W35759  26.006   4.753   8.454  0.3746 -0.2365  0.0025
    1W        W35760   3.430   1.793   9.559  0.3452  0.0135 -0.0243
    1W        W35761   8.245  18.244   9.132  0.2091 -0.1763 -0.0670
    1W        W35762  22.747   0.146   0.057  0.0831  0.3139 -0.1130
    1W        W35763  20.687  22.407   8.839 -0.2539 -0.2472  0.0623
    1W        W35764  27.072   9.737   0.352  0.2324 -0.1784  0.5294
    1W        W35765  18.719   6.426   0.030  0.0355 -0.0953 -0.1554
    1W        W35766   6.721  18.654   6.929  0.1009 -0.1155 -0.3301
    1W        W35767   3.036   3.099   2.135 -0.0796  0.3984 -0.2957
    1W        W35768   7.519  26.064   2.508  0.1060 -0.3876 -0.0581
    1W        W35769  27.544  22.494   8.259 -0.0801  0.2790  0.0070
    1W        W35770  18.245  27.609   9.521  0.0815  0.1649  0.1592
    1W        W35771   8.298  17.760   8.036 -0.5095 -0.0293  0.0103
    1W        W35772  21.878  23.270   7.349 -0.1177  0.0210 -0.1495
    1W        W35773  20.714  10.009   1.789  0.2160 -0.0294  0.1460
    1W        W35774  15.449   2.494   2.054 -0.0694 -0.1890  0.2109
    1W        W35775  14.059   3.287   7.882 -0.0072  0.2259 -0.0633
    1W        W35776   9.887   8.425   0.944  0.1209 -0.1779  0.0585
    1W        W35777   2.408   4.686   8.114 -0.1676  0.5222  0.4670
    1W        W35778   5.517  28.631   4.008 -0.2617 -0.0747 -0.0914
    1W        W35779  19.702  23.732   0.775 -0.2367 -0.1052 -0.2991
    1W        W35780   4.583  13.950   9.383 -0.0956  0.1662  0.0762
    1W        W35781  27.521  22.838   3.489 -0.4274 -0.0794  0.1711
    1W        W35782  20.119  26.993   1.279  0.1397 -0.0299  0.1275
    1W        W35783  14.563  21.404   9.505 -0.2510 -0.0999  0.0405
    1W        W35784   5.764  14.661   8.043  0.0846 -0.2359 -0.2539
    1W        W35785  27.126   2.294   0.904  0.1705 -0.0321 -0.1909
    1W        W35786  21.032  25.748   8.848  0.1532 -0.0818 -0.1212
    1W        W35787  28.905  26.177   8.945  0.1344  0.0114  0.0243
    1W        W35788  22.341  17.351   1.476 -0.0972 -0.1894  0.0304
    1W        W35789  16.672  18.192   1.772 -0.0108 -0.2328 -0.1074
    1W        W35790  18.347  21.657   9.575 -0.0567 -0.3015  0.0474
    1W        W35791  26.880  25.679   8.061  0.1860  0.0212  0.3496
    1W        W35792  20.360  24.876   8.770 -0.0694  0.3557  0.0462
    1W        W35793  23.297  14.526   6.354 -0.0279 -0.2124 -0.1925
    1W        W35794  25.868  22.817   7.159  0.1061 -0.0138 -0.2070
    1W        W35795  27.212  12.981   2.788 -0.1827 -0.0868 -0.0137
    1W        W35796  24.091  10.987   7.067 -0.0015 -0.1440 -0.0332
    1W        W35797  10.548  17.885   0.820 -0.0513  0.3893 -0.1953
    1W        W35798   6.953   4.887   3.210  0.0931 -0.1625  0.0319
    1W        W35799   1.063   3.671   7.798 -0.0212 -0.2959 -0.0750
    1W        W35800  20.850  12.719   8.125  0.1569  0.0445 -0.1029
    1W        W35801   3.254  16.917   2.830 -0.0333  0.1580 -0.1339
    1W        W35802  27.341   9.981   7.285 -0.0089 -0.0237 -0.4869
    1W        W35803  10.575  26.700   2.460 -0.2160  0.1394  0.0796
    1W        W35804  13.841   6.743   4.010  0.1984  0.0667 -0.0324
    1W        W35805  13.772  24.503   9.254  0.0032  0.3438 -0.0282
    1W        W35806   8.471   4.234   9.518  0.2403 -0.0205 -0.0314
    1W        W35807  13.927   1.543   2.542  0.2079 -0.1781  0.2562
    1W        W35808   2.169  18.161   8.209  0.0567  0.1005  0.5752
    1W        W35809  27.932  20.991   6.770 -0.0470  0.4091 -0.3488
    1W        W35810  27.722   5.085   9.006  0.0028 -0.1056  0.0240
    1W        W35811  25.302   3.891   8.032 -0.0174 -0.1654 -0.1478
    1W        W35812  13.530  20.629   1.069 -0.0613 -0.2864 -0.0365
    1W        W35813  24.176  22.306   3.644 -0.3322 -0.0634  0.0169
    1W        W35814   8.507  23.415   1.726  0.0206 -0.0027 -0.0156
    1W        W35815  20.730  13.478   2.157 -0.2655  0.0061  0.2907
    1W        W35816  11.472   9.585   2.328 -0.3061 -0.0812 -0.0517
    1W        W35817  28.271   1.302   7.732 -0.0215  0.0786 -0.1608
    1W        W35818   3.655  10.266   1.699 -0.0176  0.4139  0.0529
    1W        W35819  10.675  22.445   1.939 -0.0471  0.0424 -0.0398
    1W        W35820  16.424   0.323   2.277  0.0516 -0.2013  0.0297
    1W        W35821  26.010  21.050   9.267 -0.0954  0.0302  0.1122
    1W        W35822  20.206  25.478   8.521  0.1499 -0.1436 -0.1340
    1W        W35823  25.694   7.883   7.488  0.1248  0.4113  0.0063
    1W        W35824  13.233   3.560   8.785 -0.1047  0.1875  0.1374
    1W        W35825  20.060  15.946   1.573 -0.1661 -0.1101 -0.2088
    1W        W35826  19.345   2.879   2.699 -0.0408  0.2123 -0.0745
    1W        W35827   1.946  21.670   8.062  0.0016  0.3829 -0.1339
    1W        W35828  28.705  17.465   8.881  0.0697  0.0867  0.0211
    1W        W35829   5.777  24.123   9.654  0.4006 -0.2109 -0.2427
    1W        W35830  16.601  28.367   7.887 -0.1560  0.2835  0.2188
    1W        W35831   8.040  19.159   5.979  0.2685  0.1076  0.1403
    1W        W35832  18.979  25.855   1.384 -0.1886 -0.2355 -0.1895
    1W        W35833   0.630   5.000   0.199 -0.4201  0.2328 -0.1506
    1W        W35834  10.755  15.196   6.981 -0.2782  0.2930  0.0866
    1W        W35835  12.307   9.070   2.336  0.0571 -0.0416  0.2495
    1W        W35836   5.879  20.572   1.448 -0.0888  0.1334 -0.0415
    1W        W35837   5.041  15.292   2.091 -0.1071  0.1558  0.0484
    1W        W35838  19.190   7.157   1.967 -0.0302  0.1170 -0.0942
    1W        W35839  23.603   4.405   8.159  0.0781 -0.0802  0.0597
    1W        W35840  25.186  11.326   6.549 -0.1804  0.2117  0.0266
    1W        W35841   2.450   1.318   0.888 -0.0170  0.1350 -0.0843
    1W        W35842  19.882   5.601   8.067  0.1962 -0.1455 -0.1910
    1W        W35843  12.637  23.183   9.361  0.0265 -0.0477 -0.2196
    1W        W35844  27.303  21.376   0.916 -0.0689  0.1253 -0.0035
    1W        W35845  24.248  29.311   9.664  0.0994 -0.1771  0.2033
    1W        W35846  16.615   6.121   3.800  0.0740  0.0022 -0.0536
    1W        W35847  22.011   1.918   3.027  0.0177  0.4602 -0.0331
    1W        W35848  26.636  13.572   8.596  0.0793  0.0784 -0.0964
    1W        W35849  19.535  26.793   9.508  0.0900  0.0677 -0.1300
    1W        W35850  23.102   3.544   1.917 -0.0370 -0.2687 -0.3089
    1W        W35851  17.819  15.565   8.565  0.2237  0.1964 -0.0478
    1W        W35852  20.890   9.413   9.044  0.0273 -0.2690 -0.0242
    1W        W35853  16.281   1.113   8.572 -0.2882 -0.0994  0.0945
    1W        W35854  15.199   3.918   7.144 -0.0721 -0.2152  0.0259
    1W        W35855   4.628  24.806   2.768  0.0946 -0.3467 -0.1919
    1W        W35856  19.500  29.265   2.360  0.1802  0.0920  0.3035
    1W        W35857  24.285  20.132   0.576  0.1035  0.0509  0.2588
    1W        W35858  29.042  19.007   0.089  0.0452 -0.1048  0.0287
    1W        W35859   4.091   7.027   8.089  0.1615 -0.2212  0.2546
    1W        W35860  12.894  17.942   0.204  0.0334 -0.1201 -0.1525
    1W        W35861  28.296  12.705   0.272  0.0669 -0.0326  0.0619
    1W        W35862  15.275  15.784   1.557  0.3395 -0.0775  0.0697
    1W        W35863  21.639  15.915   8.175  0.2220  0.1617 -0.1192
    1W        W35864  10.360  25.377   0.017  0.1035 -0.0739  0.1404
    1W        W35865  14.004  20.961   1.965 -0.0063 -0.1390  0.0455
    1W        W35866  22.534   1.385   1.491  0.0748 -0.2646  0.2046
    1W        W35867  11.318  27.881   0.216 -0.2513 -0.1026  0.1078
    1W        W35868  23.906  13.981   6.702  0.1570 -0.2206  0.0187
    1W        W35869  14.065  25.338   2.326  0.0623 -0.0072  0.0472
    1W        W35870   3.019  24.549   2.034  0.3628 -0.0761 -0.0901
    1W        W35871  27.299  10.325   7.702 -0.0629  0.0521  0.2550
    1W        W35872  12.922   7.723   2.535  0.0766 -0.1409 -0.4383
    1W        W35873  24.506   0.667   9.228 -0.4347  0.1752  0.0242
    1W        W35874  24.234  13.542   5.419 -0.2488 -0.0707 -0.0775
    1W        W35875  17.481  19.567   0.631  0.2315  0.2614 -0.0108
    1W        W35876   6.844  10.064   9.688  0.2259 -0.0455  0.0730
    1W        W35877   3.859   1.747   7.606 -0.3779  0.1302  0.0245
    1W        W35878  19.975  20.087   8.176 -0.0896  0.1360  0.2188
    1W        W35879   0.201   5.244   2.254  0.0115  0.2011  0.1222
    1W        W35880   5.121  26.306   2.463  0.0724 -0.0026 -0.1709
    1W        W35881  15.063   1.189   3.043 -0.2929 -0.0472 -0.0102
    1W        W35882  17.034   6.539   7.256  0.0663 -0.1596  0.1504
    1W        W35883   4.303  21.325   1.270 -0.3873 -0.0856 -0.0251
    1W        W35884  21.145   2.344   2.197 -0.0655  0.4197 -0.1082
    1W        W35885  16.519  18.147   9.562 -0.0437  0.1261  0.0515
    1W        W35886  10.246   4.280   2.489  0.1371  0.1520 -0.2453
    1W        W35887   1.873  12.175   2.443  0.1136  0.1111  0.0558
    1W        W35888   8.435  18.729   7.116 -0.1091 -0.1191 -0.3819
    1W        W35889  10.326   2.738   9.285 -0.1005 -0.2767  0.1906
    1W        W35890   3.178   0.887   6.828 -0.0227  0.2334  0.1570
    1W        W35891  25.143  17.283   7.650 -0.0086 -0.1955 -0.0052
    1W        W35892   4.784   6.173   7.933 -0.0105  0.2889 -0.1683
    1W        W35893  13.195   2.815   7.564  0.0817  0.2908 -0.3179
    1W        W35894  23.069   3.056   1.127  0.1254 -0.4193 -0.4604
    1W        W35895  29.186   4.099   6.941 -0.0478 -0.1986 -0.2474
    1W        W35896   7.303  22.344   8.191  0.1790 -0.0407  0.3788
    1W        W35897  27.165  24.383   8.182 -0.3489 -0.1688  0.1468
    1W        W35898  12.393  16.483   9.566 -0.1195  0.4267 -0.2884
    1W        W35899  16.539   0.850   7.975  0.0082 -0.1865 -0.0515
    1W        W35900  10.456  26.956   0.541 -0.0109 -0.1272 -0.2675
    1W        W35901  29.151  23.010   1.550 -0.0401  0.0647 -0.1608
    1W        W35902   3.683  26.312   2.619 -0.3854  0.1474 -0.0761
    1W        W35903  16.611   8.003   8.305 -0.3111 -0.0581  0.0093
    1W        W35904  20.766  14.947   7.430  0.0181  0.2536  0.2060
    1W        W35905  16.693   9.301   2.571  0.1458  0.2212 -0.1758
    1W        W35906  23.153  15.517   0.963  0.0257 -0.0872  0.0351
    1W        W35907  15.761   6.985   2.336  0.0200 -0.0989  0.1076
    1W        W35908  10.071  22.853   6.460  0.3035  0.1889  0.0971
    1W        W35909  23.256   1.963   9.233 -0.2503 -0.0408 -0.2018
    1W        W35910   7.194  14.944   6.176  0.0568  0.2564  0.1143
    1W        W35911   3.125   3.298   7.463  0.0269 -0.2943  0.1784
    1W        W35912  18.270   8.295   1.273  0.0845 -0.2660  0.1119
    1W        W35913   9.534  15.571   6.937 -0.1994  0.3217 -0.1448
    1W        W35914   0.188   3.795   1.331 -0.2252 -0.2350  0.1001
    1W        W35915  18.814   4.074   7.464 -0.1228  0.0140  0.0565
    1W        W35916   1.638   5.738   7.026  0.0499 -0.1682 -0.1140
    1W        W35917   7.533   9.288   8.800 -0.0007  0.1010  0.1948
    1W        W35918  15.022   3.283   7.929 -0.0038 -0.0447  0.1519
    1W        W35919  13.557   4.913   3.711 -0.4003 -0.1194 -0.1662
    1W        W35920  28.266   3.669   8.332  0.0948 -0.0220  0.0914
    1W        W35921  20.675  16.680   7.663 -0.0747 -0.1266  0.2185
    1W        W35922  28.432   0.983   8.103  0.1273 -0.0640 -0.1448
    1W        W35923  19.485  21.831   0.784  0.1637  0.1497 -0.0389
    1W        W35924   8.699   0.529   7.749 -0.2240 -0.0453  0.0527
    1W        W35925   8.494  19.698   6.763  0.1045  0.0870 -0.0826
    1W        W35926   6.275  11.770   1.076 -0.0128  0.1484 -0.3242
    1W        W35927  24.585   8.785   1.561 -0.0824 -0.0365 -0.2081
    1W        W35928  22.527  10.148   0.809  0.0943  0.3070  0.1821
    1W        W35929  27.921   0.118   6.896 -0.1553  0.1886 -0.3435
    1W        W35930  19.620   2.093   9.395  0.0606 -0.0661 -0.1041
    1W        W35931  14.858  14.024   0.212 -0.0338  0.0665  0.0017
    1W        W35932   4.493  21.788   8.992 -0.0073  0.1784  0.0150
    1W        W35933   0.840  27.945   1.699  0.3422  0.2133  0.3197
    1W        W35934  24.530   9.166   1.160 -0.1156 -0.1736  0.0194
    1W        W35935   7.755   9.355   8.347  0.1394  0.1857  0.1913
    1W        W35936   3.111   6.192   8.347 -0.1038  0.0609 -0.1758
    1W        W35937   5.856  21.414   1.209  0.2608 -0.1277  0.0929
    1W        W35938   6.129  17.312   2.327  0.1049  0.2277 -0.0353
    1W        W35939  21.099  11.023   6.832  0.3197 -0.1767  0.0141
    1W        W35940   7.329  21.078   1.413  0.0171 -0.2949 -0.0357
    1W        W35941   2.500  28.491   2.472 -0.3264  0.1588 -0.0397
    1W        W35942  11.447  24.844   1.379  0.2292  0.3060 -0.2258
    1W        W35943  14.544  14.678   0.589 -0.0900 -0.2318  0.1724
    1W        W35944  27.921   4.907   2.802  0.3615 -0.1794 -0.2374
    1W        W35945  19.726  16.879   8.784  0.0218  0.2051 -0.0466
    1W        W35946  17.565  23.273   7.146 -0.1941 -0.2332 -0.0069
    1W        W35947  27.688  27.455   7.241  0.0562  0.1345 -0.1166
    1W        W35948   9.703  26.909   2.677  0.1129 -0.0141 -0.1679
    1W        W35949   6.630   1.205   1.072 -0.0264  0.3165 -0.3039
    1W        W35950  24.491  23.621   1.559  0.3810 -0.4032  0.0812
    1W        W35951   5.908   7.915   8.598 -0.0135  0.1300  0.1636
    1W        W35952  23.180  11.988   7.798 -0.0933 -0.0324 -0.1622
    1W        W35953  18.141  13.618   6.735 -0.0152  0.2432 -0.1353
    1W        W35954   8.627  27.170   2.530 -0.1572  0.1884 -0.2548
    1W        W35955   6.740  23.704   0.869  0.1422 -0.1318 -0.1252
    1W        W35956   7.707  23.017   6.687 -0.0525 -0.0591  0.0155
    1W        W35957  15.629  14.465   0.542 -0.3485 -0.3719  0.0176
    1W        W35958  24.438  10.056   6.006 -0.2432  0.1864  0.1180
    1W        W35959  28.058   0.318   2.498  0.2543  0.3276  0.2983
    1W        W35960  25.021   8.070   6.673  0.0107  0.5252 -0.3236
    1W        W35961   0.745  26.895   0.934 -0.1144 -0.0938  0.0856
    1W        W35962   0.469   9.770   8.346  0.0617  0.1162 -0.1341
    1W        W35963   4.059   3.010   1.570  0.0213  0.1258  0.3719
    1W        W35964  24.260  16.410   7.079  0.1505  0.1979 -0.0101
    1W        W35965   4.276  20.207   9.538  0.2563  0.2024  0.1614
    1W        W35966   6.192  16.027   7.030  0.0158  0.0975 -0.1148
    1W        W35967  11.650  12.035   7.873  0.0988  0.0213 -0.0251
    1W        W35968  20.584  24.706   9.359 -0.0957 -0.2425 -0.0543
    1W        W35969  27.983   5.920   6.907  0.0322  0.2147 -0.3774
    1W        W35970   2.066   0.045   1.383  0.1921 -0.1107 -0.1149
    1W        W35971   2.342   0.386   1.013 -0.1351 -0.1864  0.2268
    1W        W35972  23.186  16.710   0.475 -0.3347 -0.4103 -0.0140
    1W        W35973  22.492  22.044   1.812  0.0135 -0.3784  0.0103
    1W        W35974  19.770  15.984   0.361 -0.1477 -0.1539  0.2678
    1W        W35975   4.433  23.749   7.388 -0.3110 -0.1070 -0.0718
    1W        W35976   6.976  21.161   8.766  0.1155  0.1922 -0.0700
    1W        W35977  20.709   9.110   7.795 -0.3636 -0.0513 -0.2215
    1W        W35978  17.222  15.592   7.977 -0.1756  0.0488  0.1749
    1W        W35979  10.702  16.050   0.306 -0.0137  0.0274 -0.0655
    1W        W35980   6.388   7.074   7.563 -0.0866 -0.0965  0.0543
    1W        W35981   6.439   5.652   2.221  0.0536  0.1716  0.1887
    1W        W35982  17.344  24.653   6.948  0.1675 -0.1629 -0.3842
    1W        W35983  22.432  21.674   8.940 -0.3102 -0.0285 -0.0861
    1W        W35984  25.295  18.822   2.179 -0.1565  0.2251 -0.3785
    1W        W35985   8.639  18.214   7.276  0.1303  0.4378  0.0466
    1W        W35986  27.939  21.430   9.651 -0.1180 -0.1513  0.0875
    1W        W35987   1.863   6.844   0.857  0.2927 -0.2228  0.0122
    1W        W35988   8.801   3.016   8.015 -0.0100  0.0526  0.0624
    1W        W35989   5.328  25.580   1.804  0.3440  0.2277 -0.1274
    1W        W35990  17.456  17.531   7.701  0.1327 -0.1096  0.0548
    1W        W35991   2.323   1.128   0.393 -0.1176 -0.3149  0.1933
    1W        W35992   1.793  23.421   2.301 -0.1471 -0.0181  0.0209
    1W        W35993   5.483  21.227   7.626 -0.0099  0.0080 -0.1193
    1W        W35994   9.488  17.274   1.547 -0.3789  0.1255  0.0493
    1W        W35995   3.389   8.081   9.325  0.0302  0.2154 -0.0179
    1W        W35996  20.362  27.441   9.433  0.0737  0.0488  0.0131
    1W        W35997  21.524  28.343   1.216 -0.0515  0.1908 -0.1240
    1W        W35998  25.785  14.769   7.935  0.2322 -0.1343 -0.0442
    1W        W35999   8.518  24.237   0.429 -0.0636  0.1161 -0.1427
    1W        W36000  16.995  16.736   9.648 -0.1169 -0.2840  0.0026
    1W        W36001  23.945  28.457   2.947  0.0584  0.0306 -0.3215
    1W        W36002  29.087  21.943   1.315  0.0315 -0.2411  0.0730
    1W        W36003  22.146   2.446   7.071  0.3531 -0.1535 -0.1319
    1W        W36004  17.313  13.585   1.041 -0.0596  0.0311 -0.2952
    1W        W36005   0.244  18.425   9.009 -0.0319 -0.0014 -0.1329
    1W        W36006   4.736  11.325   0.644 -0.2126 -0.0282 -0.0498
    1W        W36007  22.149  22.002   1.438 -0.3005 -0.1272  0.0984
    1W        W36008   7.374   5.723   0.962 -0.2425  0.1277  0.0640
    1W        W36009  26.053   5.288   1.531  0.1416 -0.3046 -0.0914
    1W        W36010   4.065  20.149   6.686  0.0703 -0.4174 -0.3575
    1W        W36011  18.538   4.107   0.800  0.0691  0.0308  0.1066
    1W        W36012   8.935   8.568   7.456 -0.2052 -0.0371 -0.2448
    1W        W36013  24.911   9.889   8.909 -0.0713  0.1728  0.0888
    1W        W36014  12.885  20.289   0.769  0.1914  0.0552  0.1198
    1W        W36015   8.017  17.515   9.564 -0.1157  0.2789 -0.3848
    1W        W36016   5.328  22.418   6.403 -0.0342 -0.0062  0.0924
    1W        W36017   9.948  10.040   2.402  0.1621 -0.0663  0.1845
    1W        W36018  12.883  21.749   0.413 -0.1194  0.2835 -0.1431
    1W        W36019   2.991   9.444   2.922 -0.0886  0.2912  0.2426
    1W        W36020  20.636   5.398   7.274 -0.1036 -0.1458 -0.0004
    1W        W36021  11.568   0.077   8.321 -0.3898  0.2531 -0.0920
    1W        W36022  18.644  16.558   8.754 -0.1678  0.0508 -0.0762
    1W        W36023  14.836  10.451   9.036  0.1933  0.2229  0.1890
    1W        W36024  22.703  26.705   0.471  0.1297 -0.4835  0.0100
    1W        W36025  19.617  21.759   9.482  0.0189  0.1051  0.2376
    1W        W36026   3.797  18.766   6.327  0.0191 -0.0362 -0.1648
    1W        W36027   5.730  23.618   0.591 -0.2960  0.2838  0.0156
    1W        W36028   6.285  18.845   2.045 -0.0513  0.0248  0.3062
    1W        W36029   2.073   9.559   6.891 -0.2553 -0.5674  0.0403
    1W        W36030  12.901  19.075   1.120 -0.4247 -0.1400 -0.0302
    1W        W36031  27.968   9.187   9.014  0.0050 -0.0667 -0.2980
    1W        W36032  27.639   6.279   1.404 -0.1419 -0.0742 -0.0516
    1W        W36033  11.588  14.177   9.604 -0.4697  0.1397  0.0446
    1W        W36034  20.182  13.788   2.464  0.2862  0.0918  0.0768
    1W        W36035  25.396  12.689   8.251 -0.0814 -0.0350  0.0145
    1W        W36036  21.184  23.278   6.236 -0.0367  0.2059  0.0541
    1W        W36037   0.750   4.577   6.778 -0.1614 -0.0773  0.0126
    1W        W36038  27.017  13.541   1.036 -0.1002  0.1978  0.0484
    1W        W36039   6.482  27.401   0.385 -0.0125  0.1741 -0.0460
    1W        W36040  16.248   2.934   1.706  0.0848 -0.2240  0.0931
    1W        W36041  12.699   4.206   1.428 -0.0633  0.2917 -0.2336
    1W        W36042  11.759   7.308   1.445 -0.0595 -0.1955 -0.2231
    1W        W36043  23.016   2.951   6.654 -0.0862  0.2232 -0.3665
    1W        W36044  15.173  22.674   6.859 -0.0885 -0.0873  0.0890
    1W        W36045  17.706   6.419   1.618  0.2956 -0.2722  0.2914
    1W        W36046   1.139   8.990   8.602  0.1000 -0.4339 -0.2134
    1W        W36047   1.428   0.301   8.468  0.2006 -0.0206  0.1258
    1W        W36048  26.317   5.970   9.313  0.0295  0.5392 -0.0729
    1W        W36049  21.253  19.333   1.990 -0.0775 -0.1423  0.2568
    1W        W36050  10.819  26.691   7.845 -0.1617  0.0437  0.3083
    1W        W36051  15.467  10.982   0.188 -0.1616 -0.0109  0.3802
    1W        W36052  15.966  17.709   0.143 -0.2187 -0.0298 -0.0444
    1W        W36053  21.938  23.526   7.799  0.1709 -0.1134 -0.2530
    1W        W36054   1.935   4.452   6.368  0.1150 -0.2271 -0.4070
    1W        W36055  16.586  28.162   2.425 -0.1242  0.3523  0.1998
    1W        W36056   8.341  28.592   1.379 -0.1327  0.2197  0.0835
    1W        W36057   5.940   4.540   9.634 -0.1332  0.0434 -0.1482
    1W        W36058  25.559  20.022   0.029 -0.0391  0.1765 -0.0351
    1W        W36059  19.775  22.731   3.130  0.0549  0.0003  0.1546
    1W        W36060  27.665  21.500   0.591 -0.1447 -0.1899 -0.1486
    1W        W36061   7.814   1.781   7.069 -0.2452  0.1285  0.1403
    1W        W36062   7.305  15.876   8.121  0.0719 -0.2217 -0.1537
    1W        W36063  28.318  15.061   6.959  0.0834  0.1645  0.0620
    1W        W36064  15.706  23.304   1.976  0.0862 -0.1882  0.5405
    1W        W36065  17.783   1.955   0.850  0.0475 -0.0847 -0.2635
    1W        W36066  24.177  17.138   0.351  0.0082 -0.0689  0.2894
    1W        W36067  12.771  16.936   8.692 -0.0867  0.1760  0.0251
    1W        W36068  16.694   7.358   2.305  0.1428  0.0322 -0.1036
    1W        W36069  14.669  11.249   9.578  0.3025 -0.3003 -0.0691
    1W        W36070  13.770  24.099   8.795  0.1493  0.1266 -0.0243
    1W        W36071   5.920   0.254   8.269 -0.2826  0.1431 -0.4223
    1W        W36072   1.194   7.828   9.023 -0.0614  0.0290  0.0061
    1W        W36073  17.792  13.702   0.203 -0.1174 -0.2757  0.1757
    1W        W36074  16.431  12.830   1.843 -0.2087 -0.1526 -0.1377
    1W        W36075  16.646   0.273   9.366 -0.1174  0.0054 -0.1767
    1W        W36076  10.466  24.362   9.138 -0.2911  0.2379  0.1972
    1W        W36077  22.867   2.633   5.840 -0.0366 -0.0032  0.2678
    1W        W36078  24.279  10.228   8.436 -0.1385 -0.3079  0.0739
    1W        W36079   1.531   3.722   7.672 -0.0037  0.1241  0.0386
    1W        W36080  17.204  28.853   2.808 -0.0223 -0.1428  0.0500
    1W        W36081   2.470  24.804   2.781  0.2316  0.0253 -0.1413
    1W        W36082  26.693   9.156   0.399  0.0423  0.0102  0.1104
    1W        W36083  16.522  11.139   0.854  0.0699 -0.1251  0.0886
    1W        W36084  23.884  21.803   0.018  0.0626 -0.0227  0.1356
    1W        W36085  13.822   6.261   2.109  0.0298 -0.0765 -0.1886
    1W        W36086  25.932  28.491   1.940 -0.1481  0.1052 -0.2196
    1W        W36087   5.989  16.166   2.033 -0.0494 -0.1389  0.1878
    1W        W36088  21.512  21.176   9.002 -0.1608 -0.1520  0.0089
    1W        W36089   7.895  27.828   8.443 -0.0945 -0.0789  0.0829
    1W        W36090  21.095   6.356   1.064  0.2139  0.0852  0.2292
    1W        W36091  18.429  10.116   2.806  0.0476  0.1636  0.1433
    1W        W36092  29.046  20.378   6.874 -0.1416  0.0041  0.0997
    1W        W36093   6.021  16.545   8.969 -0.3458  0.3759 -0.0641
    1W        W36094   3.108  20.649   0.081  0.0330  0.0053  0.0503
    1W        W36095  11.508   2.411   0.438 -0.2059  0.1446  0.1527
    1W        W36096  22.522  18.746   1.274  0.0808  0.3356 -0.3305
    1W        W36097  25.940   7.037   0.551  0.0273 -0.3456  0.1360
    1W        W36098   8.935   0.235   2.754 -0.2879  0.1954 -0.0556
    1W        W36099   7.925  27.358   3.329 -0.0758 -0.0472  0.2155
    1W        W36100   5.137  19.148   7.743 -0.1775  0.0684 -0.3609
    1W        W36101  26.875  12.933   0.267 -0.1972 -0.3388 -0.0739
    1W        W36102   1.913  26.348   8.098  0.2885  0.1553 -0.0714
    1W        W36103  11.177  17.082   7.098 -0.2450 -0.0291 -0.0832
    1W        W36104  13.576  26.241   8.494 -0.4853 -0.0941 -0.2284
    1W        W36105   2.767  13.823   7.531 -0.1716  0.2610  0.2075
    1W        W36106  11.553  19.533   7.394 -0.2953 -0.2138  0.2912
    1W        W36107  15.534  10.548   7.940 -0.1125  0.0642 -0.2048
    1W        W36108  13.382  24.066   9.205 -0.0501  0.3174 -0.1790
    1W        W36109   2.042  13.512   0.066 -0.0282  0.5396  0.1748
    1W        W36110  23.827  26.509   1.898  0.2611  0.2019  0.0255
    1W        W36111   1.227  15.345   9.457 -0.0406 -0.3186  0.1598
    1W        W36112   6.801  10.311   8.478  0.4392  0.0431 -0.2148
    1W        W36113  13.820  13.615   7.263 -0.2162 -0.3024 -0.0483
    1W        W36114  27.336  11.978   0.284 -0.1326  0.1583  0.1735
    1W        W36115  18.673   5.788   2.222 -0.1518 -0.1814  0.1206
    1W        W36116  12.477  15.250   0.042  0.1091 -0.0467  0.1706
    1W        W36117   5.988  12.696   8.173 -0.1599  0.0571 -0.0553
    1W        W36118   5.873   9.009   7.664  0.1425 -0.2357  0.1231
    1W        W36119  24.620  22.276   2.040 -0.1039  0.2215 -0.0963
    1W        W36120  22.127  29.232   2.934 -0.0542  0.2239  0.0939
    1W        W36121   8.341   1.850   6.977  0.0414 -0.0688 -0.3944
    1W        W36122  17.160   6.397   0.720 -0.0840  0.2197 -0.1243
    1W        W36123  13.714  16.750   2.294  0.0739  0.3861  0.0556
    1W        W36124   5.530  18.071   8.143  0.0139  0.0097 -0.0373
    1W        W36125   8.478  28.413   0.914 -0.0122  0.1496  0.1143
    1W        W36126   0.591   4.817   8.387 -0.1089  0.1577 -0.1249
    1W        W36127  24.731   8.075   2.937  0.1802  0.1823  0.0206
    1W        W36128   3.123  24.078   6.740  0.2621 -0.0281  0.1523
    1W        W36129  11.202   4.171   8.284 -0.0145  0.2823  0.0539
    1W        W36130   5.456   3.583   0.241  0.1318  0.3050  0.3837
    1W        W36131  14.633  17.311   0.685 -0.2093  0.2683  0.2615
    1W        W36132  10.221  26.496   0.633 -0.2367  0.1420 -0.1545
    1W        W36133  16.128   7.745   8.292  0.0280 -0.0276 -0.2998
    1W        W36134  17.369  28.144   2.205  0.0140 -0.0543  0.0705
    1W        W36135   0.596   9.578   8.772  0.0903 -0.0429 -0.0181
    1W        W36136  23.461   9.299   8.993 -0.3129  0.0807  0.4155
    1W        W36137  24.980  11.121   9.084 -0.0308 -0.0336  0.0828
    1W        W36138  26.078  14.256   8.567  0.0704  0.0277  0.1520
    1W        W36139  24.839   3.885   8.256 -0.3988 -0.1088  0.2108
    1W        W36140  27.365  22.396   7.385  0.2127  0.0306 -0.4447
    1W        W36141  17.575  24.016   1.106 -0.2193  0.3730  0.0906
    1W        W36142  18.352  13.210   1.898 -0.2715 -0.1368 -0.0313
    1W        W36143  28.415  18.938   0.002 -0.1712  0.0112  0.0156
    1W        W36144  19.019   0.835   8.520 -0.0346 -0.0576 -0.0902
    1W        W36145  11.608  18.389   9.410  0.0479  0.2005  0.0586
    1W        W36146   7.260  12.474   6.724  0.1629  0.2918  0.0320
    1W        W36147  13.971  22.581   1.363 -0.2020  0.0742  0.1750
    1W        W36148  24.394  12.436   2.458  0.0856  0.2645  0.1254
    1W        W36149   2.960   2.123   9.365  0.1875 -0.1243 -0.1079
    1W        W36150   7.907   3.249   9.555  0.0560 -0.2971  0.1465
    1W        W36151   3.048  27.040   8.683 -0.0445  0.0209 -0.2405
    1W        W36152   2.977   2.704   1.226  0.1621 -0.0165 -0.1436
    1W        W36153  22.085  21.438   7.823  0.1273 -0.1221 -0.0049
    1W        W36154   7.974   8.858   8.594 -0.1338 -0.3616  0.3361
    1W        W36155   1.294   7.860   9.529 -0.1342 -0.4380  0.1342
    1W        W36156  12.585   9.034   7.690 -0.1744 -0.1484 -0.0168
    1W        W36157  17.501  25.274   8.918  0.1797 -0.1320 -0.0882
    1W        W36158  14.425  23.001   7.455  0.0373  0.3242  0.2130
    1W        W36159  11.715  16.775   0.272  0.3630  0.0205  0.2228
    1W        W36160  20.662   3.964   1.434 -0.0026 -0.1716  0.3080
    1W        W36161   2.777  13.161   9.374  0.2500  0.0104 -0.4510
    1W        W36162  15.528  18.643   8.577 -0.2368  0.3422  0.2510
    1W        W36163  22.049  14.241   1.644  0.0591  0.0219  0.3335
    1W        W36164   7.227   0.722   7.864 -0.2688 -0.1243  0.0265
    1W        W36165  11.118  23.202   1.101  0.3554  0.1490  0.4093
    1W        W36166   2.164  21.759   7.072 -0.0071  0.1968 -0.1706
    1W        W36167  25.838   6.596   8.788 -0.0592  0.0590 -0.2471
    1W        W36168   1.649  14.154   6.726  0.1947  0.0682 -0.1815
    1W        W36169  14.442  27.098   7.696 -0.0307  0.1106 -0.1435
    1W        W36170  10.182   1.069   1.280 -0.1588  0.1860 -0.1299
    1W        W36171   5.776  22.530   6.665  0.1656 -0.0816  0.3386
    1W        W36172  10.048   1.594   8.557  0.0985 -0.0968  0.1376
    1W        W36173   0.617  26.667   8.815  0.0893  0.0557  0.0469
    1W        W36174  26.446  11.328   8.384  0.1168  0.1410 -0.1523
    1W        W36175   1.865  17.040   7.882  0.1892 -0.3048  0.2616
    1W        W36176   4.657   8.766   2.302 -0.0059  0.2183  0.1555
    1W        W36177   4.099  19.278   7.792  0.0888  0.1442  0.0063
    1W        W36178  15.365  11.814   0.388  0.0325 -0.1158 -0.1076
    1W        W36179  17.396  22.398   1.480 -0.3104 -0.2814  0.1577
    1W        W36180  28.053  25.808   2.361 -0.0890  0.1388 -0.2785
    1W        W36181  20.522  27.405   8.122 -0.0920 -0.1068  0.1972
    1W        W36182  15.405  15.771   0.443  0.6548  0.0305  0.1012
    1W        W36183  18.288  23.367   6.615 -0.1727  0.3694  0.0333
    1W        W36184  17.967   7.622   2.380  0.0051 -0.1004 -0.0129
    1W        W36185  29.240   2.828   2.201 -0.2101 -0.0837 -0.1120
    1W        W36186  13.486  25.346   2.522  0.1029 -0.1004  0.0635
    1W        W36187  29.107  11.403   9.667 -0.3779  0.1967 -0.2825
    1W        W36188   3.109  15.352   5.977  0.0300 -0.3820  0.0619
    1W        W36189   8.827   0.994   7.884 -0.2632 -0.2236  0.0464
    1W        W36190  11.992  23.173   9.213  0.2483  0.1380  0.2537
    1W        W36191  19.398   2.853   1.041  0.1120 -0.1000  0.1131
    1W        W36192  15.515  27.649   9.392  0.2668 -0.0458  0.0480
    1W        W36193  25.304  23.750   6.320 -0.1866 -0.0916 -0.2235
    1W        W36194  22.164   6.960   1.298  0.0758 -0.1930  0.1305
    1W        W36195  24.860  28.705   1.585  0.0447  0.3033 -0.0431
    1W        W36196  26.768  16.021   8.196  0.1408  0.3085  0.0885
    1W        W36197   4.321  13.841   6.475 -0.0687 -0.1691 -0.3282
    1W        W36198  22.013   6.832   6.833  0.4443 -0.2030  0.0328
    1W        W36199  17.575   1.061   8.864  0.0383 -0.3495  0.0864
    1W        W36200   3.341  22.495   9.151 -0.2644 -0.0134 -0.4943
    1W        W36201   1.783  13.471   8.535  0.2702  0.3058  0.1566
    1W        W36202   3.028  24.028   6.212 -0.2726 -0.1534  0.1996
    1W        W36203  21.821  20.033   8.152 -0.2859  0.1835  0.1621
    1W        W36204  17.779   8.554   8.460 -0.1919  0.0798 -0.0979
    1W        W36205   6.225  14.010   6.136 -0.0181  0.0430 -0.0994
    1W        W36206  12.570   7.689   7.784 -0.4088 -0.3424  0.0666
    1W        W36207  14.450  20.205   7.761 -0.0454  0.1373 -0.2624
    1W        W36208   0.616  28.689   8.208 -0.0190  0.1677 -0.0627
    1W        W36209  15.141   1.040   3.537 -0.2773  0.3659  0.1427
    1W        W36210   8.820  23.773   0.232 -0.0583 -0.0644 -0.1074
    1W        W36211  12.827  26.338   9.124  0.1496 -0.5116  0.0083
    1W        W36212   1.974  24.083   7.955 -0.0697 -0.2203  0.1357
    1W        W36213   4.635   5.799   0.038 -0.0500  0.1150 -0.0341
    1W        W36214  13.815   7.514   2.678 -0.0196 -0.1156  0.0335
    1W        W36215  10.386  21.657   2.290 -0.0133  0.1244  0.4001
    1W        W36216   6.210  22.177   0.166  0.2510 -0.2400 -0.3141
    1W        W36217   5.973   3.428   2.417 -0.3915  0.0843  0.0357
    1W        W36218  16.518   2.917   9.306 -0.1290 -0.2974  0.4140
    1W        W36219  22.833  18.747   8.220  0.0186  0.1271  0.0399
    1W        W36220   8.709   8.021   7.043  0.5146  0.2008 -0.1739
    1W        W36221  16.327  14.360   1.837 -0.0503 -0.0047  0.1924
    1W        W36222  11.153  20.983   7.886 -0.1204  0.3473  0.0975
    1W        W36223   3.331  15.822   6.001  0.1100  0.1554 -0.1969
    1W        W36224  26.912  13.368   9.095  0.3491  0.0323  0.0258
    1W        W36225   7.820  27.716   9.542 -0.1108  0.0578  0.0525
    1W        W36226  25.571  26.361   8.757 -0.2685 -0.1997  0.1989
    1W        W36227  11.503   6.979   9.220 -0.1266  0.1290  0.0202
    1W        W36228   2.848   6.567   6.433  0.3607  0.1937 -0.2423
    1W        W36229  20.102   4.490   6.826 -0.3578 -0.2557 -0.0522
    1W        W36230  12.285  28.101   2.340 -0.1105  0.0146  0.1144
    1W        W36231  24.373  14.862   8.054 -0.0523  0.2152  0.2131
    1W        W36232  23.970  23.271   6.647 -0.1213  0.0122 -0.0723
    1W        W36233  12.028  23.235   0.838  0.2051  0.1866 -0.2635
    1W        W36234   9.199  16.574   0.496 -0.1536 -0.1852  0.0033
    1W        W36235   6.437  15.525   0.118 -0.0082 -0.1521  0.2339
    1W        W36236   4.862   9.985   1.762 -0.1542  0.3026 -0.2828
    1W        W36237   5.315   4.986   6.935  0.1049  0.4365 -0.1735
    1W        W36238  10.002  24.342   8.866 -0.1401 -0.2608  0.2076
    1W        W36239  27.136   2.837   0.222  0.0139  0.4185  0.1393
    1W        W36240  14.480  14.794   7.771  0.2688 -0.1178 -0.2279
    1W        W36241  25.437  14.305   2.424  0.1579  0.3116  0.2030
    1W        W36242  13.061  14.867   8.980 -0.1217 -0.1552 -0.0539
    1W        W36243  13.844   9.430   7.852  0.1206  0.0910  0.4977
    1W        W36244  20.890  14.436   8.149  0.0669 -0.2082  0.2885
    1W        W36245  28.775   3.226   0.643  0.3263 -0.1561  0.1921
    1W        W36246   8.461   6.004   7.759  0.0386 -0.0356  0.2714
    1W        W36247  13.809  22.561   6.806  0.0827 -0.3989  0.0518
    1W        W36248  21.851  27.183   0.715 -0.0968  0.2495 -0.0767
    1W        W36249  27.153  13.466   1.871  0.1333  0.0608 -0.0273
    1W        W36250   3.261  16.422   8.750 -0.1705 -0.0440  0.0924
    1W        W36251  21.432  19.026   7.874 -0.0649  0.0887  0.0303
    1W        W36252   5.237  28.178   0.168  0.3669  0.1142  0.0423
    1W        W36253   7.522  20.491   8.451  0.1434  0.3540  0.1133
    1W        W36254  23.594  10.818   1.511 -0.0154  0.3608  0.2616
    1W        W36255   5.777  10.663   7.418 -0.1010 -0.1686  0.0176
    1W        W36256  22.827  27.163   6.961 -0.0940  0.0827 -0.0926
    1W        W36257   5.277   5.502   0.772  0.0397 -0.0774 -0.0608
    1W        W36258  28.799  24.693   0.708 -0.0749  0.3021 -0.3406
    1W        W36259   5.259   4.017   6.018 -0.0535  0.4169  0.0638
    1W        W36260  20.606  20.256   7.421 -0.2673  0.0893  0.0325
    1W        W36261   3.236  21.307   6.745 -0.0241 -0.2501  0.6011
    1W        W36262  12.994  23.939   1.382  0.2281  0.0948 -0.0471
    1W        W36263   4.426  22.733   1.730 -0.0151  0.1189 -0.1327
    1W        W36264  16.234   3.954   0.386 -0.1520  0.2081 -0.0231
    1W        W36265  18.893  20.778   0.721 -0.1165 -0.1228  0.1064
    1W        W36266   7.994  10.227   2.266  0.1418  0.0715  0.1963
    1W        W36267   4.479  13.211   8.279 -0.1810  0.5548  0.1345
    1W        W36268  25.246  27.225   1.453  0.0642 -0.0538 -0.2365
    1W        W36269  21.345  17.908   0.432  0.0559  0.0981 -0.0575
    1W        W36270   5.003  25.744   2.211  0.2756  0.0668  0.0631
    1W        W36271   7.156   9.670   8.885 -0.0765 -0.3440 -0.0326
    1W        W36272  10.867   7.024   2.895 -0.3828 -0.0743 -0.1214
    1W        W36273  18.147  21.904   0.264 -0.1772 -0.0160 -0.1261
    1W        W36274  18.417  25.415   0.156 -0.3151 -0.2318 -0.3803
    1W        W36275  21.176  15.332   0.266 -0.1454 -0.0346 -0.1475
    1W        W36276  13.363   9.394   8.073  0.1715 -0.1507  0.3290
    1W        W36277  13.704  25.408   1.921  0.0911 -0.3930 -0.2299
    1W        W36278  19.893  15.405   1.437 -0.0463 -0.0693  0.2580
    1W        W36279  13.033  27.721   9.375 -0.3577  0.2922  0.0438
    1W        W36280  24.037  24.027   0.015 -0.1479 -0.3157 -0.0321
    1W        W36281  21.638   7.931   2.476 -0.0140 -0.1715 -0.0544
    1W        W36282  18.810  16.324   8.318 -0.0932 -0.1599  0.0510
    1W        W36283  17.580   5.889   2.938 -0.1360 -0.1287 -0.1247
    1W        W36284   2.320  13.213   0.594  0.0496  0.0197  0.0768
    1W        W36285  16.266   2.484   7.568  0.0229 -0.2621  0.1799
    1W        W36286  15.448  23.796   0.287  0.1964  0.0977  0.0892
    1W        W36287  19.108  17.130   1.080 -0.2173 -0.0402 -0.2329
    1W        W36288  22.996  18.653   1.178 -0.5008 -0.3200 -0.1247
    1W        W36289   9.919  25.706   0.211 -0.1110  0.0167  0.2948
    1W        W36290  21.043  16.550   7.319  0.2161  0.2679 -0.0644
    1W        W36291  17.124  23.689   8.413 -0.2822 -0.1359 -0.0373
    1W        W36292  14.692   0.334   9.096 -0.2668 -0.4353 -0.0135
    1W        W36293  26.145   3.941   0.245  0.0025  0.4040  0.1412
    1W        W36294  27.078   1.284   7.199 -0.0257  0.2866 -0.0251
    1W        W36295   5.457  21.096   5.942  0.2743  0.0250  0.1489
    1W        W36296  22.608  26.707   8.557 -0.0238  0.3166  0.2208
    1W        W36297   6.948  28.440   0.226  0.0080  0.2931  0.2904
    1W        W36298  22.225   1.232   9.177 -0.1225 -0.0899  0.3238
    1W        W36299  27.018  15.168   2.488 -0.2051 -0.0801 -0.0014
    1W        W36300  19.085  21.448   8.604  0.0791  0.2028  0.0368
    1W        W36301  14.305  22.445   0.546  0.0857  0.2576  0.1304
    1W        W36302   7.591  14.833   0.167  0.0985 -0.0584 -0.1997
    1W        W36303  19.102  20.986   2.886  0.1299  0.1991 -0.4862
    1W        W36304  19.551  27.862   2.272  0.1900 -0.1200  0.4611
    1W        W36305  19.470   4.622   0.365 -0.0486 -0.2067  0.0098
    1W        W36306  27.361  18.381   2.273  0.1039 -0.1811 -0.1572
    1W        W36307  13.346  10.440   9.396  0.0536  0.0107 -0.0325
    1W        W36308   0.495  18.164   9.401  0.1455 -0.1874  0.0167
    1W        W36309  28.419   7.339   7.743 -0.1860 -0.0110  0.0220
    1W        W36310  18.256  12.438   7.253  0.0549 -0.1399  0.1565
    1W        W36311   4.349  13.551   7.397  0.2883  0.0605 -0.1120
    1W        W36312   3.334   5.126   6.991 -0.3045  0.1628  0.0601
    1W        W36313   5.359  22.915   6.094  0.3009 -0.1985  0.0164
    1W        W36314  20.747  25.761   2.742  0.2772  0.2987  0.0463
    1W        W36315   7.711  19.821   0.295 -0.0841  0.2609 -0.1436
    1W        W36316   0.475  16.143   9.491 -0.3241  0.2040 -0.0429
    1W        W36317  19.572   5.925   2.847  0.0018 -0.0113  0.1276
    1W        W36318   5.517  28.482   2.886  0.1228 -0.2596  0.3029
    1W        W36319  26.883  14.999   0.370  0.1667 -0.1096  0.3189
    1W        W36320  13.285  27.484   1.837  0.1208 -0.3822 -0.0541
    1W        W36321  28.678   1.554   9.059 -0.1914  0.2268 -0.2344
    1W        W36322   1.706  13.600   1.616  0.2023 -0.0816 -0.3636
    1W        W36323   0.957  24.724   6.804  0.2500  0.0446  0.0494
    1W        W36324  23.385  29.274   9.338  0.3842 -0.3320  0.2107
    1W        W36325   6.310  24.402   0.888 -0.2455  0.1570 -0.0648
    1W        W36326   2.634  25.190   0.507 -0.2635 -0.0115 -0.3721
    1W        W36327  26.816  18.800   7.967 -0.1196 -0.0091  0.2550
    1W        W36328   4.220   0.164   0.073  0.0646 -0.2236  0.0450
    1W        W36329   5.272  25.074   1.670 -0.0548 -0.0273  0.0658
    1W        W36330   6.955   7.675   7.037  0.1024 -0.0803  0.2778
    1W        W36331  27.697  20.932   9.675 -0.2244  0.1405  0.0932
    1W        W36332   4.238  12.254   7.204 -0.0112  0.1026 -0.3124
    1W        W36333  15.314  24.334   8.363  0.1324  0.1670  0.0776
    1W        W36334   3.524  10.016   9.604  0.1165 -0.0621 -0.2782
    1W        W36335  14.462  10.147   2.779 -0.0143 -0.1195 -0.1773
    1W        W36336  27.157  19.038   1.142  0.3887  0.0506 -0.0185
    1W        W36337   1.975   0.074   0.870  0.1489  0.1579  0.1335
    1W        W36338  25.295  20.473   1.605 -0.0881 -0.1364  0.2929
    1W        W36339   2.862   1.172   0.158 -0.0746 -0.1712  0.1225
    1W        W36340  15.366  18.135   0.056 -0.0609 -0.1256 -0.0035
    1W        W36341  20.770   0.990   1.503 -0.0357  0.1515  0.3459
    1W        W36342  16.606   1.457   7.019  0.2765 -0.0799 -0.1765
    1W        W36343  10.941  26.385   2.531 -0.0814 -0.0853  0.0695
    1W        W36344  20.272  22.789   3.450  0.1558 -0.0435 -0.2576
    1W        W36345  23.598  12.860   0.227 -0.1704  0.2462 -0.0716
    1W        W36346  11.605  25.445   1.466  0.3256 -0.2015  0.4358
    1W        W36347  20.058  14.731   8.469 -0.1172 -0.0825  0.0767
    1W        W36348   3.307  13.993   9.482 -0.1562  0.0890 -0.1638
    1W        W36349  13.549  18.322   0.077 -0.0228  0.4193 -0.0640
    1W        W36350  25.039   3.038   5.841 -0.0603  0.1576 -0.0304
    1W        W36351   9.202  18.700   2.223  0.1160  0.0555 -0.0405
    1W        W36352   6.367  11.690   6.945 -0.1227  0.0018  0.0774
    1W        W36353  10.120  23.245   0.293  0.0132  0.0977  0.2906
    1W        W36354  26.313  22.817   0.281  0.0790 -0.0553  0.2307
    1W        W36355  20.812   7.960   9.365 -0.2316 -0.1259  0.4791
    1W        W36356  11.135  27.395   0.336  0.1393  0.1737 -0.0608
    1W        W36357  22.296   4.786   0.843  0.1015 -0.0646  0.0088
    1W        W36358   0.021   6.639   8.490 -0.1304  0.1327 -0.0913
    1W        W36359  22.653   2.041   2.605  0.0109  0.1581  0.2325
    1W        W36360  17.761  11.997   0.554  0.3424 -0.1498  0.0693
    1W        W36361  17.837  28.277   8.568 -0.0313  0.0989  0.2701
    1W        W36362  27.806   4.411   9.567  0.0011  0.1014  0.0876
    1W        W36363  22.437  22.162   0.975  0.3845  0.2087 -0.1438
    1W        W36364  23.747  14.285   7.640  0.2543  0.2424 -0.3944
    1W        W36365   2.179  16.530   0.597  0.1784 -0.1032  0.0530
    1W        W36366   7.434  21.288   7.899 -0.2169  0.0211 -0.0340
    1W        W36367  28.206  22.230   7.772 -0.1986  0.2728  0.0739
    1W        W36368   1.741  16.300   1.807  0.0424 -0.3007 -0.0585
    1W        W36369  23.006  27.444   9.199  0.1094 -0.2915 -0.0197
    1W        W36370   9.048  18.231   7.875  0.2179 -0.1489  0.0392
    1W        W36371   6.210   9.044   2.377  0.1846 -0.1738  0.1438
    1W        W36372  26.973   7.376   8.955  0.0778  0.1324  0.2303
    1W        W36373  24.575  16.209   9.091  0.5574  0.2314  0.2098
    1W        W36374  15.517  27.735   2.804  0.0309  0.1681  0.2417
    1W        W36375   0.237  13.507   2.057  0.0448 -0.0410 -0.1039
    1W        W36376   0.044  27.640   0.621 -0.0329  0.1708  0.1285
    1W        W36377  13.741   3.225   3.930  0.1389 -0.1920  0.1332
    1W        W36378   4.914   2.268   0.688  0.1153 -0.0460 -0.3189
    1W        W36379   7.640  11.679   1.748  0.0327 -0.2220  0.1064
    1W        W36380   4.773  15.442   6.260 -0.2654 -0.0114  0.2699
    1W        W36381   3.779  18.279   6.346 -0.3205 -0.0197  0.1108
    1W        W36382   2.261  19.372   8.663  0.0256  0.0916  0.0611
    1W        W36383  26.883   9.700   0.929 -0.0125  0.1192  0.1589
    1W        W36384  27.851  16.181   0.423 -0.1514  0.1746  0.0062
    1W        W36385  21.665  12.815   7.861 -0.2034  0.0154  0.1087
    1W        W36386  13.790  27.251   8.470 -0.0460  0.1182  0.1280
    1W        W36387  10.466  27.478   8.542  0.1328  0.5591  0.0680
    1W        W36388  24.073  13.244   8.047  0.0734 -0.0043  0.0783
    1W        W36389   0.521  10.511   1.293 -0.2626 -0.0774 -0.5917
    1W        W36390  11.058   2.549   8.725 -0.1296  0.1210  0.0760
    1W        W36391  15.884   0.614   8.034  0.3640  0.4476 -0.2204
    1W        W36392   7.312   3.340   7.838  0.1961  0.0783  0.0724
    1W        W36393  24.040  21.180   9.246 -0.0356 -0.3269 -0.0720
    1W        W36394   9.087  11.154   1.186 -0.1530  0.3919 -0.1829
    1W        W36395  23.683  11.596   0.879 -0.0858 -0.3199 -0.1527
    1W        W36396  21.397   8.675   0.169 -0.0487  0.5280 -0.0286
    1W        W36397   4.988   3.093   1.886 -0.1654  0.0469 -0.2065
    1W        W36398  12.218  21.571   8.510 -0.2139  0.0586  0.1290
    1W        W36399  10.186  27.069   2.489 -0.2454 -0.0889 -0.0548
    1W        W36400  27.843   4.806   6.891 -0.0331  0.2503 -0.1159
    1W        W36401  11.432  14.518   0.255  0.5417 -0.0274 -0.2347
    1W        W36402   9.832  24.758   2.079  0.0086 -0.0277  0.0077
    1W        W36403   4.265  16.268   9.101 -0.2115 -0.2243 -0.0382
    1W        W36404  19.693  25.068   7.094  0.1412  0.0439  0.4663
    1W        W36405  16.060  10.652   7.642 -0.0092 -0.0582 -0.0564
    1W        W36406  25.918  29.098   8.679 -0.0891 -0.0690  0.0422
    1W        W36407  21.227  25.038   7.905 -0.0573 -0.1325  0.1453
    1W        W36408  16.017  16.393   2.011 -0.1606 -0.1795 -0.2627
    1W        W36409  27.125  24.046   2.704 -0.0212 -0.1408 -0.0491
    1W        W36410   3.626  13.589   1.442  0.1086  0.0295 -0.3992
    1W        W36411  27.424  25.119   1.349  0.2767  0.3836  0.2508
    1W        W36412  25.203  16.116   7.781  0.0543 -0.0286 -0.4133
    1W        W36413   5.742  13.258   9.610 -0.0655  0.0892 -0.2066
    1W        W36414   1.205  22.888   8.652  0.0598 -0.2797 -0.0762
    1W        W36415   4.137  26.681   7.881  0.0421 -0.2843 -0.1438
    1W        W36416   4.409   6.396   9.119  0.1045 -0.2480 -0.1620
    1W        W36417  19.107  20.964   7.643 -0.0627  0.1817  0.0495
    1W        W36418   3.005  12.372   0.830  0.0931  0.0677 -0.1675
    1W        W36419   9.310  12.025   9.147 -0.2203 -0.1831  0.2926
    1W        W36420  27.130  28.148   2.267 -0.2148  0.0842 -0.1265
    1W        W36421  11.437   4.743   2.698  0.1750  0.1852 -0.3306
    1W        W36422  22.992   6.557   0.100 -0.1121 -0.0066 -0.0580
    1W        W36423  29.012   3.551   3.275 -0.0014 -0.0114  0.0611
    1W        W36424  17.916  26.008   7.768 -0.0757 -0.1046  0.0960
    1W        W36425  14.709  16.366   1.691  0.0044  0.0034  0.1146
    1W        W36426  26.789  10.654   1.123 -0.0558 -0.2694 -0.1484
    1W        W36427  27.582  27.399   6.566  0.0510 -0.0679 -0.2575
    1W        W36428   5.673  27.658   0.911 -0.2398 -0.0038  0.1483
    1W        W36429   3.606  18.860   1.904  0.1182  0.0665  0.1324
    1W        W36430  18.447  12.415   8.481  0.0856 -0.2351 -0.0871
    1W        W36431  15.838   5.195   2.362 -0.0514  0.1310 -0.1194
    1W        W36432  23.345   1.056   7.035 -0.1465 -0.3222 -0.1681
    1W        W36433  21.784  27.083   6.814  0.0670  0.2149 -0.0354
    1W        W36434  21.823  26.892   0.212 -0.5773  0.2546  0.4050
    1W        W36435  13.423   9.236   1.093 -0.0986 -0.2266  0.0760
    1W        W36436   4.128  27.980   2.028 -0.2739  0.2016  0.1431
    1W        W36437  11.007  13.972   1.703 -0.3205 -0.2775  0.0457
    1W        W36438  14.576   5.107   8.427 -0.1706  0.0536 -0.1204
    1W        W36439  16.560   1.814   9.035 -0.0548 -0.0528  0.2141
    1W        W36440  10.737  25.315   8.863  0.0853 -0.1103 -0.0511
    1W        W36441  19.667  11.250   9.107 -0.0808 -0.0150 -0.0737
    1W        W36442  21.591   8.226   0.029 -0.3375 -0.0603  0.0498
    1W        W36443  24.498  25.721   7.678  0.1992  0.0688 -0.2269
    1W        W36444   1.014  27.223   0.637 -0.3185 -0.0004 -0.1458
    1W        W36445  17.285  16.715   2.157  0.0078 -0.1615  0.0530
    1W        W36446  29.143   0.458   7.454  0.1008 -0.2228 -0.0772
    1W        W36447  26.574  23.032   9.094 -0.2580  0.0339 -0.0071
    1W        W36448   9.943  19.372   7.258 -0.0850  0.1768  0.1318
    1W        W36449  13.099  21.193   7.736  0.0767 -0.1045  0.0012
    1W        W36450   0.418   1.251   0.939  0.0193  0.0606  0.2043
    1W        W36451  17.099   5.161   3.084  0.1581  0.0087 -0.0470
    1W        W36452  18.076   3.997   9.028 -0.0318  0.1584  0.0264
    1W        W36453   5.994   6.393   0.748  0.0904 -0.0959  0.2989
    1W        W36454  21.009   2.015   1.837  0.0544 -0.0778 -0.2627
    1W        W36455  26.505  14.138   9.510  0.0654 -0.0489 -0.1934
    1W        W36456  14.224   6.276   2.558 -0.0963  0.0980 -0.1426
    1W        W36457  29.046   4.995   3.010  0.1527  0.0834 -0.2902
    1W        W36458  25.778  15.636   0.092 -0.2864  0.3384  0.0964
    1W        W36459  25.056  15.436   6.421 -0.0083 -0.2218 -0.1197
    1W        W36460   5.485   1.783   2.092  0.0586  0.1311  0.2426
    1W        W36461   6.869  22.808   1.668 -0.2093 -0.0875  0.1861
    1W        W36462  20.882  24.406   2.541  0.4664 -0.4548 -0.0103
    1W        W36463  27.875  25.915   0.949 -0.1191  0.0456  0.1642
    1W        W36464  29.106  24.729   3.364  0.3441 -0.1841  0.0704
    1W        W36465  22.856  22.786   8.086  0.4796 -0.1454 -0.0767
    1W        W36466   7.091  11.382   8.818  0.2555 -0.0377 -0.0685
    1W        W36467   7.408   1.893   8.969  0.2516 -0.0390  0.1442
    1W        W36468   5.583  24.743   6.256  0.1822 -0.2767  0.1032
    1W        W36469  13.407  13.101   9.670 -0.0163  0.1681 -0.0657
    1W        W36470   2.012  16.598   9.534  0.0683 -0.1104  0.0542
    1W        W36471  18.225   8.347   8.032 -0.0655  0.0213 -0.4081
    1W        W36472  13.106   7.117   1.064  0.0765  0.2009 -0.0816
    1W        W36473   6.087  27.940   1.129 -0.2939  0.2171 -0.1922
    1W        W36474  12.660   4.871   8.058 -0.0391 -0.3298  0.2972
    1W        W36475  28.937   4.582   6.177  0.1155 -0.2367 -0.3673
    1W        W36476  16.544  23.215   0.146 -0.0628 -0.0479  0.1477
    1W        W36477  15.406   9.850   1.493 -0.0284  0.0740  0.1348
    1W        W36478   9.331  16.454   0.985  0.1665  0.3605  0.2060
    1W        W36479   9.369  28.751   7.498  0.0416  0.1394  0.1115
    1W        W36480  23.782  24.507   0.000  0.0539  0.1818 -0.0612
    1W        W36481  17.266  15.104   1.315  0.0097 -0.1251 -0.1221
    1W        W36482   4.690  28.556   8.548 -0.0562 -0.0124 -0.0669
    1W        W36483  18.475  20.765   6.962 -0.0778  0.0109 -0.2978
    1W        W36484   0.643   5.067   7.830 -0.1370  0.1374  0.2433
    1W        W36485  15.377  27.600   1.755 -0.1685  0.2666  0.0128
    1W        W36486   8.874  19.024   0.892 -0.0577  0.1598  0.4938
    1W        W36487  13.778  27.638   5.285 -0.0323 -0.1726 -0.0790
    1W        W36488  29.046  11.134   8.068 -0.0654  0.1094  0.0144
    1W        W36489  22.383  24.682   7.157  0.0217 -0.1479  0.2175
    1W        W36490  22.307   6.468   8.773  0.1684 -0.2939  0.1157
    1W        W36491  15.390  25.070   1.493  0.1784  0.0545 -0.1906
    1W        W36492  27.327   6.553   6.358 -0.1539  0.0703  0.0275
    1W        W36493  12.229  12.916   0.771  0.2278 -0.0509 -0.1348
    1W        W36494  26.245   1.400   0.584  0.0353 -0.2468  0.1757
    1W        W36495  22.076   5.024   1.259 -0.0663 -0.0198  0.2684
    1W        W36496   8.312  22.720   7.306 -0.0395 -0.1703 -0.1206
    1W        W36497   6.325  24.276   6.687  0.1005  0.1078  0.2952
    1W        W36498   5.817  22.968   7.973 -0.1920 -0.1340  0.0613
    1W        W36499  10.674  12.500   7.730 -0.2030 -0.1061 -0.3716
    1W        W36500   0.554  10.957   1.494  0.0581  0.2661 -0.1859
    1W        W36501   0.002  22.845   1.152 -0.1155 -0.4103  0.1206
    1W        W36502  17.439  13.576   1.950  0.0269  0.2124 -0.4234
    1W        W36503  22.593   7.355   8.219 -0.2427  0.3389  0.4112
    1W        W36504  26.872  14.302   9.172 -0.0535  0.3701  0.3557
    1W        W36505   4.822  18.907   0.888  0.2454 -0.1324 -0.1241
    1W        W36506  24.837   8.961   2.425 -0.0614  0.0539 -0.1248
    1W        W36507   5.802  21.064   1.551 -0.2661  0.1636  0.3858
    1W        W36508  14.514  27.715   3.731  0.1226 -0.3663 -0.0706
    1W        W36509   3.514  26.995   8.403 -0.0232 -0.0507 -0.0816
    1W        W36510   3.283   9.520   7.442  0.1040 -0.3590  0.3768
    1W        W36511  26.681  25.616   9.127 -0.3686  0.0321  0.1603
    1W        W36512   0.638  12.080   6.663  0.2279  0.0611 -0.1811
    1W        W36513  11.041   4.235   2.155  0.2339  0.1763  0.1149
    1W        W36514   1.599  21.160   5.856 -0.1122 -0.0421  0.3149
    1W        W36515  10.966  27.397   1.967 -0.1226  0.3504 -0.2032
    1W        W36516  27.503  28.494   7.607 -0.2728  0.0025 -0.0351
    1W        W36517  25.580   1.320   1.875  0.0985 -0.0588  0.1735
    1W        W36518  18.500  28.874   2.558  0.2609 -0.0729 -0.0467
    1W        W36519   0.839   8.949   6.359 -0.2397 -0.1874 -0.2225
    1W        W36520  20.997  26.126   0.373  0.0938  0.2275  0.1353
    1W        W36521  28.811  23.696   7.170  0.0716 -0.3328 -0.1534
    1W        W36522  12.343  28.229   9.626  0.1638 -0.3132 -0.1290
    1W        W36523   5.631  14.222   2.313 -0.3317 -0.1661  0.0459
    1W        W36524  10.881  27.460   8.237 -0.1598 -0.1670  0.0228
    1W        W36525   0.691  24.723   3.081  0.1711 -0.2862  0.0069
    1W        W36526  18.216   5.871   6.783 -0.2121 -0.3916  0.0251
    1W        W36527  22.951   3.551   1.115  0.0238  0.0206  0.1883
    1W        W36528   8.633   8.050   7.560  0.0340 -0.0625  0.1018
    1W        W36529   2.865  23.524   0.456  0.0318 -0.1799 -0.1756
    1W        W36530  17.398  12.941   0.476  0.2112 -0.1133 -0.1236
    1W        W36531   4.171   6.506   8.168  0.2910  0.0490  0.1022
    1W        W36532  18.234  17.667   0.286 -0.0899 -0.1863  0.3094
    1W        W36533  24.356   2.313   5.821  0.3412 -0.1392  0.0963
    1W        W36534  14.685  22.281   7.792 -0.0953  0.2684  0.1200
    1W        W36535  28.196   1.771   7.916 -0.0834  0.0898 -0.1310
    1W        W36536   3.699  14.613   6.662 -0.1776 -0.1676  0.1126
    1W        W36537  10.878  25.978   2.862  0.2324 -0.1343  0.3212
    1W        W36538   2.867  16.454   7.147  0.1932  0.1798  0.1241
    1W        W36539  10.006  26.382   6.873  0.2478 -0.1619 -0.0294
    1W        W36540  10.829   8.626   0.272  0.3854  0.2701 -0.0263
    1W        W36541   1.922  16.053   6.965  0.1243  0.0178  0.0202
    1W        W36542   8.752  18.061   0.008  0.1105 -0.1481  0.5154
    1W        W36543  22.257  29.013   3.400  0.0460 -0.1753  0.0669
    1W        W36544  12.151   8.924   0.856 -0.0798  0.0963  0.2294
    1W        W36545   5.282   4.996   0.641  0.2544 -0.0196  0.0536
    1W        W36546  24.759  17.670   8.804 -0.1878 -0.1274  0.1025
    1W        W36547  11.198  11.873   8.410  0.2482  0.1795  0.1228
    1W        W36548  16.627  24.979   0.648  0.1332  0.0170  0.0847
    1W        W36549   4.466   1.637   2.872  0.0406 -0.2657 -0.1621
    1W        W36550  14.503  26.980   1.966  0.0298  0.0112  0.1061
    1W        W36551  24.456  11.367   9.485 -0.0685 -0.1089 -0.5122
    1W        W36552   6.623   7.444   7.791 -0.1871  0.0283 -0.1241
    1W        W36553  22.714   1.844   8.492  0.4361  0.1893 -0.4498
    1W        W36554  16.445  13.713   1.057 -0.1455  0.0951 -0.1987
    1W        W36555  22.752  11.825   9.073 -0.0855  0.0616 -0.0356
    1W        W36556  12.775  26.043   0.282  0.2739 -0.0278  0.4453
    1W        W36557  18.922  27.071   3.426 -0.0315 -0.0592 -0.0418
    1W        W36558  24.754   7.257   7.279  0.1706 -0.1404  0.3980
    1W        W36559  11.247  26.454   2.992  0.0037 -0.0752 -0.0228
    1W        W36560  14.568  26.265   1.395 -0.0802  0.0614  0.2041
    1W        W36561  17.595  23.352   0.005 -0.2893 -0.0027 -0.2826
    1W        W36562  18.867  26.171   2.216  0.3792 -0.1442  0.1996
    1W        W36563  18.305   5.027   0.711  0.0397 -0.1068  0.0549
    1W        W36564  18.744  27.931   1.930  0.0208 -0.1618  0.1872
    1W        W36565  26.031  15.651   6.678  0.1836  0.0607 -0.4304
    1W        W36566  17.574  22.827   7.379  0.0393  0.2011 -0.4814
    1W        W36567   4.210  19.367   8.589 -0.0253  0.1552 -0.0754
    1W        W36568   4.761   9.167   1.325  0.0690 -0.0714 -0.2504
    1W        W36569   5.312  24.560   0.693 -0.5745  0.2506  0.1042
    1W        W36570   2.843  11.907   0.859 -0.0791  0.1602 -0.2543
    1W        W36571   5.361  22.045   1.778 -0.1718  0.1159 -0.2865
    1W        W36572  12.801   4.618   9.577 -0.0209 -0.2410 -0.2117
    1W        W36573   8.231   3.826   9.190  0.1086 -0.2633  0.0562
    1W        W36574   5.100  11.825   2.026 -0.2299 -0.1647  0.0060
    1W        W36575  17.101  21.150   2.170 -0.1993 -0.0320 -0.0276
    1W        W36576  13.094  20.235   7.495 -0.2709  0.1891 -0.1234
    1W        W36577   0.868  12.087   0.925  0.1446 -0.2110 -0.0128
    1W        W36578  17.085   7.658   0.305  0.0401 -0.0369 -0.2080
    1W        W36579   6.231  11.629   2.070 -0.0606 -0.0045 -0.2606
    1W        W36580   9.349  17.000   0.760 -0.1665 -0.2823  0.0226
    1W        W36581  13.481  23.918   3.853 -0.1425  0.1328 -0.2630
    1W        W36582   0.743  12.814   2.648 -0.0872  0.0102  0.1867
    1W        W36583   6.421  19.758   9.473 -0.1258  0.2239  0.0476
    1W        W36584  28.762  25.651   3.069 -0.1841 -0.2271 -0.2552
    1W        W36585  24.831  18.988   9.165 -0.2781 -0.0391  0.1193
    1W        W36586  22.761  18.437   7.812  0.0146  0.0494  0.0089
    1W        W36587  10.023   1.137   8.327  0.1604 -0.1873 -0.4317
    1W        W36588   6.594  12.285   2.166 -0.1896 -0.0477 -0.1328
    1W        W36589   5.375  20.368   6.681  0.1030  0.0102  0.3131
    1W        W36590  28.355  15.525   0.342 -0.1345 -0.1753  0.0781
    1W        W36591  14.911  25.420   7.649  0.0107 -0.0041 -0.0271
    1W        W36592   2.510   5.400   0.098  0.4245  0.1456  0.2942
    1W        W36593  20.131  29.320   8.019 -0.2291 -0.1251  0.2059
    1W        W36594   5.648   7.375   0.598 -0.1977  0.4003  0.0307
    1W        W36595  23.649   9.938   6.752 -0.0690  0.1655 -0.3642
    1W        W36596   4.472  19.805   5.871 -0.0827 -0.1477 -0.3012
    1W        W36597  28.333   9.934   8.380 -0.1018  0.1115  0.0799
    1W        W36598  28.657   2.284   6.864 -0.0186  0.2925 -0.1206
    1W        W36599  22.480   4.290   7.922  0.4203  0.1464  0.0548
    1W        W36600   3.915  26.828   1.374  0.1016 -0.1499  0.2441
    1W        W36601  15.268  10.398   2.354  0.1368 -0.1357 -0.1853
    1W        W36602  25.161   5.637   9.311  0.1251 -0.1182 -0.1206
    1W        W36603  25.553  11.287   1.670  0.0189 -0.0616  0.0860
    1W        W36604  29.187  25.271   9.338 -0.0164  0.0022  0.0903
    1W        W36605  25.496  11.314   7.424 -0.1210 -0.2654  0.1014
    1W        W36606  26.917  12.214   1.298  0.0539 -0.2392  0.1084
    1W        W36607   6.788   7.847   8.019 -0.0692  0.2716  0.0103
    1W        W36608  18.083  23.406   9.110 -0.1281  0.0332  0.2746
    1W        W36609  22.680  19.691   0.404  0.0863 -0.2476 -0.1531
    1W        W36610   6.500  22.374   9.530  0.2088 -0.1726  0.0849
    1W        W36611  24.283   3.596   0.148 -0.2374  0.4673 -0.0490
    1W        W36612  10.007  26.009   0.701 -0.0814 -0.1396  0.0067
    1W        W36613   0.359  27.981   0.936  0.0301  0.0057 -0.4389
    1W        W36614  13.793  16.459   8.640 -0.0076  0.0928  0.0397
    1W        W36615   8.078  20.820   1.642  0.6133 -0.0275 -0.0247
    1W        W36616  20.028  23.359   0.460 -0.3120 -0.0872 -0.0871
    1W        W36617  18.352  26.189   7.757  0.0217 -0.2381  0.2788
    1W        W36618  26.843   3.967   6.644  0.0398  0.1772 -0.1493
    1W        W36619   7.742  20.288   2.250 -0.0087 -0.0352  0.1501
    1W        W36620   5.725  27.023   7.721  0.2061  0.1311 -0.2078
    1W        W36621  22.458  20.475   8.770  0.2588  0.1673 -0.0541
    1W        W36622  19.565  15.333   7.948 -0.0235  0.0317 -0.1156
    1W        W36623  22.206   4.360   7.453  0.1450 -0.0116  0.0027
    1W        W36624  29.087   6.314   8.269 -0.1971  0.1418  0.3339
    1W        W36625  21.945   7.379   8.044  0.0639  0.2161 -0.1586
    1W        W36626   5.479  15.195   9.566 -0.4011  0.0636  0.0186
    1W        W36627  18.924  23.793   9.015  0.4174 -0.0709 -0.1481
    1W        W36628  26.622  21.109   6.589 -0.1871  0.0990 -0.0295
    1W        W36629   9.304  17.854   0.282  0.1843 -0.1158 -0.1550
    1W        W36630  23.070  27.058   0.989  0.2290 -0.1552  0.0753
    1W        W36631  27.393  10.860   1.218  0.0739  0.1193 -0.0370
    1W        W36632   5.622  20.811   8.621  0.5156  0.0814 -0.1754
    1W        W36633  13.503   3.900   7.521  0.3400  0.1740  0.2089
    1W        W36634  20.161   9.097   9.094  0.1729  0.0246  0.0845
    1W        W36635   2.613  19.262   7.111 -0.1495 -0.1752 -0.1452
    1W        W36636  25.228   8.907   2.772 -0.1282 -0.2484 -0.1644
    1W        W36637   2.789  11.173   9.444  0.1401 -0.1075 -0.2415
    1W        W36638  17.973   5.442   6.697  0.0374 -0.1905  0.0968
    1W        W36639   1.542  17.439   7.899 -0.0084  0.0448 -0.2754
    1W        W36640  21.779  17.980   7.476 -0.0396 -0.0093  0.0631
    1W        W36641  29.232  20.097   2.561 -0.1019  0.0746 -0.0440
    1W        W36642   0.862  28.753   3.325 -0.1047  0.0891  0.0724
    1W        W36643  12.851  24.082   7.465  0.2459 -0.1868 -0.0689
    1W        W36644  19.834   8.546   1.036  0.3251  0.0605  0.1170
    1W        W36645   8.507  23.358   8.974 -0.0232 -0.1659  0.3697
    1W        W36646  18.319   0.307   7.989  0.0459  0.4133 -0.4591
    1W        W36647  17.267  16.228   0.786  0.0828 -0.0780  0.0840
    1W        W36648  15.974  26.589   3.310 -0.4017 -0.1419  0.3291
    1W        W36649  15.700  22.578   7.598 -0.0337  0.0224  0.1705
    1W        W36650  29.303   6.090   9.495 -0.0384  0.0581  0.0118
    1W        W36651  12.279  25.604   2.002 -0.1557  0.1683 -0.1658
    1W        W36652   2.447   5.310   7.323  0.0075  0.1746  0.2540
    1W        W36653   6.181   8.216   0.520  0.0388  0.0255  0.2161
    1W        W36654  25.916  20.105   7.436 -0.0223 -0.1961  0.0299
    1W        W36655  21.555  11.003   7.765  0.0860 -0.3120  0.1029
    1W        W36656   1.666  23.022   7.882  0.1149 -0.2621  0.2045
    1W        W36657  24.465  21.361   1.543 -0.0987  0.1075 -0.2252
    1W        W36658  18.660   2.558   8.454 -0.2085 -0.1235  0.1340
    1W        W36659  13.497   0.802   3.734  0.0235  0.1716  0.4580
    1W        W36660  10.120  24.283   8.374  0.0026  0.1799 -0.3375
    1W        W36661  13.784  26.954   7.571 -0.0369 -0.3033  0.3193
    1W        W36662  24.463  28.124   0.598 -0.1404  0.0753 -0.3208
    1W        W36663   3.312  13.587   1.013  0.2530  0.0329  0.1105
    1W        W36664  12.492  26.467   8.256  0.0483  0.0498 -0.0098
    1W        W36665   2.060   7.840   8.478  0.1820 -0.2175 -0.2467
    1W        W36666  29.161  25.804   2.456  0.1405  0.0901 -0.1514
    1W        W36667  29.207   3.742   6.548  0.0262  0.0399 -0.3918
    1W        W36668   6.390  16.196   1.730  0.3498 -0.1469  0.0729
    1W        W36669  27.163   6.665   0.618  0.0347 -0.0700 -0.3089
    1W        W36670  27.500   9.735   8.283  0.0153 -0.0084 -0.1023
    1W        W36671  21.476  15.484   0.979  0.1499  0.0422 -0.0759
    1W        W36672   9.962  28.716   0.273  0.0591 -0.3032  0.1505
    1W        W36673  24.977   4.128   1.981 -0.1295  0.1517  0.1201
    1W        W36674  27.655  19.738   7.700  0.0704  0.1005  0.0010
    1W        W36675  16.411  22.077   0.892 -0.0823  0.0372  0.1331
    1W        W36676   1.384  22.387   1.114 -0.0461  0.0010  0.1419
    1W        W36677  12.620  28.976   8.568  0.1625  0.0968 -0.2160
    1W        W36678  17.896   0.686   8.093 -0.1681 -0.1021  0.1365
    1W        W36679   1.779  15.069   1.644  0.1628 -0.2618 -0.0311
    1W        W36680  17.762  19.168   2.706  0.2952 -0.2020 -0.1870
    1W        W36681   3.146  21.661   0.463  0.3207  0.2486  0.0046
    1W        W36682  25.406   0.870   9.364  0.2178 -0.1402 -0.3560
    1W        W36683  20.381  25.974   1.157 -0.1798 -0.1405 -0.0346
    1W        W36684   2.963  24.067   9.232 -0.1390  0.0943  0.0263
    1W        W36685  27.694   2.878   7.274  0.3486 -0.0553  0.2128
    1W        W36686   9.496  25.931   2.659  0.0763 -0.1704 -0.0172
    1W        W36687   3.461  27.209   8.969  0.2573  0.3730 -0.0566
    1W        W36688  17.743  16.228   0.979  0.1387 -0.2486 -0.0408
    1W        W36689  24.925  23.006   0.498 -0.1916  0.0029 -0.0486
    1W        W36690   3.608   1.805   6.676  0.2177  0.2637 -0.1685
    1W        W36691   1.301  29.266   7.163 -0.4206  0.0794  0.0324
    1W        W36692  16.742  19.505   2.078  0.0137 -0.0311  0.1281
    1W        W36693   2.480   2.394   0.175 -0.1144  0.1062  0.1676
    1W        W36694  17.570  11.608   7.365  0.2925  0.0813 -0.0025
    1W        W36695  27.670  14.958   0.061 -0.0586 -0.2187  0.0041
    1W        W36696  10.521  10.495   7.071 -0.0512 -0.0708  0.1588
    1W        W36697  21.367  28.577   9.356  0.1973  0.1880 -0.2602
    1W        W36698  14.852  15.022   0.841 -0.2826 -0.2728  0.2073
    1W        W36699  13.260   7.174   7.969 -0.0041  0.2814 -0.0907
    1W        W36700   5.912  20.673   6.609  0.0660 -0.1788 -0.1081
    1W        W36701  24.335   1.215   7.524 -0.4738 -0.0565 -0.2486
    1W        W36702  16.800  11.829   9.049  0.1456  0.0314  0.0876
    1W        W36703   0.888  27.177   1.373 -0.0083 -0.1366  0.0565
    1W        W36704   7.602  10.618   7.423  0.0164 -0.2054  0.2606
    1W        W36705  17.771  23.474   1.994  0.0511  0.1039  0.2184
    1W        W36706  10.312   1.417   8.047  0.0004  0.0185 -0.3554
    1W        W36707  27.462  15.424   9.099  0.0590 -0.1392  0.3221
    1W        W36708  25.118   4.845   6.584  0.2556  0.0948  0.2227
    1W        W36709   2.183  11.765   9.201 -0.0476 -0.0934 -0.0781
    1W        W36710   5.703  28.805   9.373 -0.2094  0.2428 -0.0843
    1W        W36711   5.771   6.167   8.454  0.0730 -0.0565  0.4343
    1W        W36712   8.828   0.247   0.229  0.0656  0.0332  0.1066
    1W        W36713  21.498   6.992   7.435 -0.0710  0.0426 -0.3589
    1W        W36714  26.582   3.711   8.032 -0.4421 -0.0810 -0.1390
    1W        W36715  28.388  10.193   0.905 -0.2557  0.3449 -0.0079
    1W        W36716   8.835   9.857   1.839  0.2503  0.0310  0.2878
    1W        W36717  14.982  16.413   7.486  0.0725  0.0635  0.3475
    1W        W36718  22.177  23.177   0.919 -0.1805 -0.3586  0.1813
    1W        W36719  28.966  12.800   6.533 -0.0114 -0.0624  0.5053
    1W        W36720   3.022   3.687   0.281 -0.1614  0.1053 -0.1119
    1W        W36721  10.246  22.235   5.870 -0.1256 -0.0628  0.2536
    1W        W36722   3.781  12.063   7.134  0.0781 -0.0760 -0.0302
    1W        W36723  15.169   9.610   0.444 -0.0856  0.2413  0.2869
    1W        W36724   9.945  14.158   0.237  0.3104 -0.1705  0.0793
    1W        W36725  14.913   2.340   0.560  0.3716 -0.1778 -0.1549
    1W        W36726  16.223   2.926   8.340 -0.0043 -0.0484  0.2171
    1W        W36727  14.045   6.512   9.417 -0.2109  0.2266 -0.0502
    1W        W36728   4.831  28.187   0.933 -0.1103  0.0397  0.1570
    1W        W36729  13.062  18.178   1.081  0.1948  0.2820  0.0580
    1W        W36730  16.250  16.903   1.655 -0.3912  0.0292  0.0973
    1W        W36731  18.534  23.194   9.030  0.0748 -0.1062  0.2190
    1W        W36732   1.719  20.882   0.104  0.0806  0.2276 -0.1169
    1W        W36733   3.154  16.414   6.747  0.0313  0.0782 -0.3053
    1W        W36734  27.420  28.160   9.024  0.1154  0.2258 -0.1471
    1W        W36735  11.792  29.281   7.357  0.2897 -0.0245  0.0100
    1W        W36736  27.418   1.665   7.308 -0.0429 -0.1285 -0.2031
    1W        W36737  11.782  18.831   9.677  0.1138  0.0691  0.0186
    1W        W36738  13.094  21.502   0.036 -0.1210  0.0759 -0.0208
    1W        W36739  22.910  11.034   7.665  0.0946 -0.0615  0.4360
    1W        W36740  15.914   8.648   8.138 -0.0260 -0.1032 -0.1378
    1W        W36741  16.368  17.225   0.894  0.2291  0.3153 -0.0071
    1W        W36742  28.223  13.842   1.183 -0.1515 -0.3303 -0.1516
    1W        W36743  14.282  23.763   8.712 -0.0939  0.4063 -0.0295
    1W        W36744  12.868   4.506   7.735  0.1545 -0.1055  0.2823
    1W        W36745  12.452  10.125   0.741 -0.0285 -0.1866  0.1126
    1W        W36746  23.922  27.933   9.569 -0.0023  0.1206 -0.0295
    1W        W36747  14.074  21.494   2.774 -0.0543 -0.0865 -0.1017
    1W        W36748  17.929   1.339   0.408 -0.1686  0.0605 -0.4003
    1W        W36749  17.317  21.759   2.143 -0.0341  0.0035 -0.1297
    1W        W36750  24.519  10.756   7.101  0.1580  0.2727  0.2373
    1W        W36751  10.920  25.336   0.140  0.2236 -0.1338  0.3147
    1W        W36752  21.305  23.445   8.500  0.0424 -0.2154 -0.1626
    1W        W36753  22.800  19.221   0.328 -0.0971 -0.1486 -0.1657
    1W        W36754   4.325  23.125   2.055 -0.0664 -0.1315 -0.0854
    1W        W36755   6.154   4.644   1.284  0.1812  0.1031 -0.0476
    1W        W36756  22.050  28.495   3.278 -0.0429  0.1401 -0.1309
    1W        W36757  14.677  23.320   3.218  0.1755  0.0681 -0.2560
    1W        W36758   3.569  20.978   7.085  0.0134 -0.1709  0.0171
    1W        W36759   5.778  14.794   1.726  0.1587  0.1935  0.0301
    1W        W36760  27.635  12.533   6.724 -0.0456 -0.1550  0.3463
    1W        W36761  10.320  15.513   8.775  0.0332  0.0677 -0.1238
    1W        W36762  27.798  25.515   0.578  0.1065 -0.0378  0.0196
    1W        W36763  17.135  17.855   8.019 -0.0083  0.1987 -0.1029
    1W        W36764  27.477   2.193   9.395  0.3577  0.1664 -0.1648
    1W        W36765   4.788   4.623   9.683 -0.1069 -0.1403 -0.2470
    1W        W36766  17.657   6.203   9.444 -0.1936  0.0393  0.0554
    1W        W36767   3.546   8.997   1.249 -0.3154  0.1275  0.0594
    1W        W36768  13.428   8.603   3.090 -0.1812  0.0967 -0.1510
    1W        W36769  27.455  17.826   1.806  0.1183 -0.0079 -0.0903
    1W        W36770  26.993   0.757   3.077 -0.2272 -0.0130 -0.4086
    1W        W36771  28.734  21.553   9.308  0.0091 -0.0445  0.0667
    1W        W36772  25.427   5.394   6.062 -0.3348 -0.2189 -0.2360
    1W        W36773   1.582  26.707   2.128 -0.2785  0.0416  0.0930
    1W        W36774   3.380   5.549   9.263  0.2805 -0.1726  0.0389
    1W        W36775  21.857  20.963   8.028 -0.1435 -0.0253 -0.2912
    1W        W36776  23.313   3.473   0.612 -0.1622 -0.0256 -0.0272
    1W        W36777   0.034   2.068   0.545 -0.1341  0.2176 -0.0066
    1W        W36778  29.258   7.364   1.218  0.4611 -0.1239 -0.0904
    1W        W36779  27.835   9.601   1.744 -0.0598  0.1097  0.1494
    1W        W36780  16.263  26.801   8.325 -0.0650  0.2725  0.0479
    1W        W36781  26.157   6.883   7.686  0.0217 -0.4350  0.0822
    1W        W36782   1.121  12.363   9.675  0.1971  0.2454 -0.0820
    1W        W36783   7.765   0.766   7.870 -0.0594  0.1398  0.1379
    1W        W36784  28.332  23.878   2.404 -0.2248 -0.2680  0.0671
    1W        W36785  27.653   3.665   8.405 -0.0672 -0.4466  0.3218
    1W        W36786  14.128   0.238   7.884  0.1774  0.2543  0.1406
    1W        W36787  26.357   8.177   0.380  0.0127 -0.1774  0.0154
    1W        W36788  25.398  17.135   9.288  0.2968 -0.1613 -0.2178
    1W        W36789  27.040  24.974   6.692  0.0213 -0.0991 -0.5840
    1W        W36790  25.441  12.994   6.516 -0.1246  0.0483  0.1615
    1W        W36791  11.787  22.384   8.841  0.0140 -0.0966 -0.4185
    1W        W36792  16.187   4.371   8.379 -0.1122 -0.0063 -0.1520
    1W        W36793  19.494  24.487   9.348  0.0682  0.1180 -0.1381
    1W        W36794  10.436  13.462   0.505  0.1138 -0.0016  0.1407
    1W        W36795  18.717  28.049   7.665  0.2035  0.0392 -0.2173
    1W        W36796   1.985  14.505   2.689 -0.0329 -0.0652 -0.6205
    1W        W36797  28.686   7.356   9.470  0.2314 -0.0552  0.0241
    1W        W36798  11.139   3.634   0.993 -0.0657 -0.0242  0.2403
    1W        W36799   3.515  29.202   8.552  0.2062 -0.0289 -0.2673
    1W        W36800  14.460   2.849   1.272 -0.0057 -0.0610  0.0465
    1W        W36801   7.863  16.816   0.673  0.2649  0.1668  0.2476
    1W        W36802   3.116   0.758   8.656  0.0241 -0.1703  0.3280
    1W        W36803   3.359  28.437   6.378 -0.1673  0.2199 -0.0705
    1W        W36804  28.060   9.154   1.872 -0.0195 -0.0305  0.0963
    1W        W36805  10.364  18.593   0.355  0.2131  0.1982  0.2417
    1W        W36806  17.343  26.971   7.661  0.1741  0.0217  0.1303
    1W        W36807  20.749  25.192   3.069  0.0983  0.2467  0.2979
    1W        W36808  24.065  12.041   7.342 -0.3181  0.0498 -0.2764
    1W        W36809  22.632   8.034   9.690  0.1263 -0.0934  0.0137
    1W        W36810  17.521   3.111   7.078  0.3078 -0.3244  0.2570
    1W        W36811  13.973  26.384   1.428  0.3383 -0.1560  0.0173
    1W        W36812   4.253  29.165   9.035 -0.1400 -0.3593 -0.2342
    1W        W36813  25.118  10.471   1.066 -0.0977 -0.1110 -0.0421
    1W        W36814  21.558  28.899   9.691  0.2186  0.0936 -0.2508
    1W        W36815  21.295   0.760   0.729  0.1777 -0.0973  0.0569
    1W        W36816  23.767   7.302   7.970  0.0190  0.1257  0.1667
    1W        W36817   6.494  18.408   0.194  0.1019 -0.3501 -0.2017
    1W        W36818  21.362  21.174   9.447 -0.2420  0.1860  0.1540
    1W        W36819   0.091  11.797   2.494 -0.0950 -0.0948 -0.0710
    1W        W36820  10.187  23.122   9.487 -0.2039  0.2631 -0.0894
    1W        W36821  20.139  14.972   1.368  0.1098  0.0094 -0.2410
    1W        W36822  22.451  24.087   7.223 -0.1718  0.2584  0.0848
    1W        W36823  22.020   6.147   8.322 -0.0382 -0.2722 -0.0240
    1W        W36824  13.218  20.815   8.979 -0.0584  0.0884 -0.0904
    1W        W36825   7.252   4.588   9.075 -0.1789 -0.1429 -0.2609
    1W        W36826   0.789  23.507   2.427  0.1764  0.1581 -0.1474
    1W        W36827  27.415  16.894   6.155 -0.0018 -0.3572  0.0786
    1W        W36828  17.241   1.657   0.136  0.0324  0.0993 -0.0371
    1W        W36829  24.649   2.057   8.440  0.0799 -0.0144 -0.3751
    1W        W36830  29.121   2.193   6.937 -0.1295 -0.3238 -0.4094
    1W        W36831  13.878   0.582   2.627  0.3363 -0.0340  0.0792
    1W        W36832  17.037   3.165   7.426  0.2056 -0.3011  0.0980
    1W        W36833   4.263  11.820   7.415  0.0192 -0.2336 -0.1212
    1W        W36834   3.680   9.398   8.156 -0.0747  0.0683 -0.0860
    1W        W36835  15.039  10.798   9.689 -0.1402  0.0797 -0.2757
    1W        W36836  23.312   6.078   0.060 -0.1179  0.0243 -0.3256
    1W        W36837   0.209  15.866   1.632  0.0177  0.0201  0.0573
    1W        W36838  17.662  28.547   1.479 -0.1667  0.2549 -0.2016
    1W        W36839   7.161  27.113   8.288  0.0223 -0.3754  0.0593
    1W        W36840  11.308  27.554   3.161  0.0235  0.1151 -0.3576
    1W        W36841  11.078  12.771   9.480  0.0674 -0.3946  0.0893
    1W        W36842   0.971  15.767   6.959  0.1925 -0.0968  0.1788
    1W        W36843   4.943  12.121   6.496  0.0693 -0.2305 -0.0210
    1W        W36844  13.499  27.115   1.243  0.1372 -0.2188 -0.1554
    1W        W36845   1.076   3.141   6.663 -0.0378 -0.2357  0.0501
    1W        W36846  21.814  29.242   3.322  0.0495  0.0837  0.2619
    1W        W36847   5.330  11.658   7.958  0.2918 -0.2013  0.1260
    1W        W36848  20.042  17.737   2.046  0.2903  0.1174 -0.5718
    1W        W36849  24.847   8.806   8.203 -0.3182  0.1949  0.1329
    1W        W36850  19.009  12.628   7.416  0.5200 -0.0213  0.0712
    1W        W36851  28.958  14.452   2.052 -0.1329 -0.1819 -0.2414
    1W        W36852  10.061   2.061   1.279 -0.2303 -0.1189 -0.1249
    1W        W36853  14.036  28.354   1.903  0.0159  0.5183 -0.1371
    1W        W36854   9.886  11.616   1.556 -0.0439 -0.0622 -0.0986
    1W        W36855  11.758  23.991   7.223  0.1804  0.4511  0.1290
    1W        W36856  13.259   0.929   1.447 -0.2047  0.1468  0.0795
    1W        W36857  19.870  29.181   1.991  0.2391 -0.2295 -0.3889
    1W        W36858  20.919   1.440   7.541 -0.0216  0.0247 -0.0387
    1W        W36859  15.316   8.883   1.735  0.0726 -0.0571  0.0937
    1W        W36860  18.458   7.938   2.758  0.0144 -0.1290  0.1159
    1W        W36861  20.361   3.503   6.695 -0.0983  0.2557 -0.0552
    1W        W36862  15.434  27.337   1.222  0.1432 -0.5766  0.2228
    1W        W36863  28.786   3.745   8.503 -0.1498  0.0445  0.1034
    1W        W36864   0.161   8.020   8.220 -0.1164  0.2206 -0.0402
    1W        W36865  19.670  20.047   9.528 -0.0874 -0.1411 -0.1748
    1W        W36866  25.352   8.976   1.138  0.4025 -0.0045  0.1541
    1W        W36867   6.607  24.182   8.587  0.0173  0.0140  0.3550
    1W        W36868  18.063  14.631   7.447  0.1651  0.0434 -0.1449
    1W        W36869  20.384  10.018   3.256 -0.0186  0.3180  0.0991
    1W        W36870  21.955  19.033   7.889 -0.2403 -0.0669 -0.2721
    1W        W36871  19.211  14.988   7.903  0.0809 -0.1968  0.0152
    1W        W36872  14.209  12.883   0.074  0.0252  0.3741  0.1503
    1W        W36873   0.399   8.973   1.645  0.2674  0.1519 -0.0014
    1W        W36874   8.070   8.700   3.165 -0.1611  0.0923 -0.2236
    1W        W36875  19.517  17.255   8.989 -0.2147 -0.1839  0.2570
    1W        W36876  28.484   1.168   3.389 -0.2040 -0.0386 -0.1131
    1W        W36877   0.888  23.950   7.883 -0.1253 -0.0548  0.1095
    1W        W36878  27.979  22.429   2.731  0.2023 -0.1069  0.0588
    1W        W36879  24.064  19.019   0.868 -0.2646  0.2419  0.1137
    1W        W36880  16.018  16.948   1.224  0.2924 -0.1028 -0.2220
    1W        W36881   9.300  16.985   9.348  0.2801  0.0608 -0.0023
    1W        W36882  26.799   0.645   0.636 -0.1669  0.2692  0.1040
    1W        W36883  25.216  28.306   6.840  0.0453 -0.0457 -0.0026
    1W        W36884   2.181  17.661   8.848 -0.1061  0.2721  0.3477
    1W        W36885  13.109  23.423   2.278 -0.0650  0.0496 -0.2636
    1W        W36886  16.241   7.421   1.323  0.1030  0.4393  0.2116
    1W        W36887  12.739  14.626   1.518 -0.1711 -0.1108 -0.1553
    1W        W36888  29.305  13.141   5.934 -0.1231 -0.1523  0.1096
    1W        W36889  11.287  19.821   9.345 -0.0185  0.0569 -0.4766
    1W        W36890  18.696  21.261   6.778  0.3420 -0.0076 -0.1452
    1W        W36891  24.831  25.752   8.515 -0.0050 -0.0434  0.0763
    1W        W36892  18.331   2.228   3.392 -0.1951  0.0421  0.0043
    1W        W36893  10.054  20.220   6.905  0.1018 -0.2711 -0.0413
    1W        W36894  21.872   4.828   1.707 -0.0538 -0.0059 -0.1776
    1W        W36895   2.531   3.846   1.566  0.0926 -0.0374  0.1063
    1W        W36896  24.976  18.221   1.606  0.1712  0.0875  0.1857
    1W        W36897  20.514   9.548   7.097 -0.1457 -0.1023 -0.2684
    1W        W36898  24.802  19.654   8.769  0.0295  0.0424 -0.0030
    1W        W36899  23.027  26.494   8.799 -0.0168  0.0723  0.1808
    1W        W36900  12.034   4.331   2.090 -0.0391 -0.1262 -0.1827
    1W        W36901  20.236   4.844   8.036 -0.0202 -0.0261 -0.3512
    1W        W36902  15.098  26.858   8.170  0.0451 -0.0089 -0.0184
    1W        W36903   9.739  25.338   1.942  0.0230  0.1424 -0.3797
    1W        W36904   3.077  22.172   0.400 -0.1280 -0.1903  0.4209
    1W        W36905  25.311  28.176   9.568 -0.0873  0.1571 -0.2794
    1W        W36906   0.861  13.133   6.993 -0.0321  0.2633  0.1300
    1W        W36907   4.980  18.557   6.225 -0.0973 -0.2352  0.0694
    1W        W36908  24.222  12.906   6.281 -0.0763  0.0088  0.1409
    1W        W36909  23.913  14.899   8.227 -0.0098 -0.0423 -0.0394
    1W        W36910   5.017   7.278   0.408  0.1501  0.1325  0.1744
    1W        W36911   0.706  25.893   7.124  0.2189 -0.1488  0.1500
    1W        W36912  16.624   1.647   7.510  0.3349  0.2795 -0.2388
    1W        W36913  26.847  22.741   1.143 -0.2041  0.3754  0.1597
    1W        W36914   6.638  21.447   8.222 -0.2755  0.2029 -0.1458
    1W        W36915   1.744  17.019   1.656 -0.2523 -0.0237 -0.0937
    1W        W36916   6.777   4.839   0.000  0.0071  0.1204  0.1515
    1W        W36917  24.867  14.446   8.421 -0.0234 -0.0934 -0.0667
    1W        W36918  15.875  12.606   0.389 -0.1475 -0.0821 -0.1824
    1W        W36919   9.592   6.258   8.880 -0.1068 -0.1262  0.0921
    1W        W36920  28.696  27.889   1.039  0.0931  0.0484 -0.0817
    1W        W36921  12.573   4.835   0.500  0.0115 -0.2771 -0.2647
    1W        W36922  28.760  20.754   0.254 -0.1130  0.1698  0.0468
    1W        W36923  19.234   7.162   8.515  0.2213  0.0013  0.2466
    1W        W36924  12.442  18.506   2.116  0.0517 -0.2370  0.0102
    1W        W36925   1.210  19.490   0.790 -0.1781  0.1873  0.2439
    1W        W36926   5.462  19.930   8.202 -0.2020 -0.1695 -0.2440
    1W        W36927   4.137   9.581   7.506 -0.0753 -0.0239 -0.1880
    1W        W36928   9.155   6.201   2.089  0.1273  0.1687 -0.1138
    1W        W36929   2.356  28.106   3.367  0.2813  0.2525  0.2032
    1W        W36930   7.990  20.290   0.367  0.3082 -0.1127  0.1949
    1W        W36931  16.841   5.963   3.040 -0.0732 -0.1989  0.0898
    1W        W36932  10.550  11.299   3.041 -0.2304 -0.0957 -0.2217
    1W        W36933  20.785  21.160   0.941  0.2481 -0.1186  0.2206
    1W        W36934  21.200  14.377   7.122 -0.1296 -0.2616  0.0660
    1W        W36935   7.676  22.726   9.152  0.2112  0.0268  0.1566
    1W        W36936  18.767  12.304   9.608  0.1791  0.0913 -0.3152
    1W        W36937  10.252  22.331   6.307 -0.0637 -0.0133 -0.3678
    1W        W36938  23.596   9.859   2.204 -0.2489 -0.0157 -0.3792
    1W        W36939  14.877   3.020   9.006 -0.3129 -0.1166 -0.1723
    1W        W36940  10.227  21.446   9.027  0.0836  0.0996  0.1323
    1W        W36941  24.857   6.305   6.845 -0.2045 -0.1926 -0.0170
    1W        W36942  25.684  17.261   8.346 -0.1527 -0.1515  0.2777
    1W        W36943  23.411   1.854   2.938  0.1638  0.2086  0.0428
    1W        W36944  28.958  15.504   7.197 -0.0834 -0.0643  0.0061
    1W        W36945  11.416  26.867   3.749 -0.0259  0.0542  0.0193
    1W        W36946  21.021   2.698   0.634  0.0881  0.1670 -0.2025
    1W        W36947   3.512  10.031   7.075 -0.1595  0.2000 -0.1941
    1W        W36948   0.399   5.159   1.111  0.1214  0.3549  0.1353
    1W        W36949  28.588   0.279   0.959  0.1901 -0.0338 -0.0413
    1W        W36950   0.764  21.899   2.051  0.0615  0.3861  0.0583
    1W        W36951   3.911   5.429   0.645 -0.0423  0.1873  0.1908
    1W        W36952  25.880  28.057   7.411 -0.1123 -0.4751  0.1967
    1W        W36953  21.348  19.745   8.347  0.1345  0.0881 -0.1116
    1W        W36954  16.347  12.280   2.200  0.2148 -0.4183  0.0036
    1W        W36955   4.973  24.853   8.672 -0.1736 -0.0651 -0.2338
    1W        W36956  23.661   6.311   0.490  0.0883 -0.0595 -0.2740
    1W        W36957  19.046  22.035   8.661  0.1554 -0.0123 -0.1572
    1W        W36958   6.604  19.578   5.343 -0.1501  0.1923 -0.0900
    1W        W36959  18.171  20.844   7.992 -0.1082 -0.3646 -0.1162
    1W        W36960   1.743  19.594   6.658 -0.0818 -0.1426  0.2142
    1W        W36961   5.928   0.627   8.686  0.3112  0.0827 -0.0418
    1W        W36962   1.206  27.482   7.747  0.1337 -0.1287  0.0849
    1W        W36963  22.485   8.241   1.181  0.3968 -0.3677 -0.2888
    1W        W36964   2.912  23.015   0.495 -0.0436  0.5410 -0.0940
    1W        W36965   3.468  23.690   8.444  0.0567  0.0509 -0.0873
    1W        W36966  24.832  12.112   0.362 -0.1965  0.0287  0.3356
    1W        W36967  24.698  17.608   9.288  0.1292 -0.1255  0.2245
    1W        W36968  23.738   5.978   6.804  0.0472  0.0342 -0.0217
    1W        W36969  25.884  14.595   1.004 -0.2621 -0.1580  0.0078
    1W        W36970  11.432  13.164   9.321 -0.2454  0.1392  0.0563
    1W        W36971   5.140  23.085   1.277 -0.0979 -0.1435  0.0042
    1W        W36972   2.434   2.854   0.129 -0.0573 -0.1703  0.0638
    1W        W36973   8.357  22.178   1.512  0.1754 -0.1003 -0.0771
    1W        W36974   3.838  21.269   7.402 -0.5906  0.1051  0.1158
    1W        W36975  16.282   7.874   0.661 -0.0348  0.0188  0.1995
    1W        W36976  13.248   6.679   2.647 -0.1973 -0.1828 -0.0609
    1W        W36977   7.744  22.172   8.397  0.1549  0.4049  0.1051
    1W        W36978  22.388  23.876   7.694  0.0931  0.4509  0.1332
    1W        W36979  22.905   5.120   2.625 -0.2317  0.1456  0.2864
    1W        W36980  19.857  25.265   2.702  0.3365  0.2723  0.1297
    1W        W36981  19.812  24.249   0.667 -0.1687  0.0256 -0.3106
    1W        W36982  14.419  27.564   7.855  0.0567  0.1914  0.3523
    1W        W36983   8.159  29.068   9.189  0.4161 -0.3187 -0.0778
    1W        W36984  25.004   1.134   8.225 -0.2693 -0.1657  0.0684
    1W        W36985  16.878  10.073   8.040 -0.0293 -0.0040 -0.1455
    1W        W36986  14.492   1.300   8.989  0.2915 -0.3120  0.0621
    1W        W36987   5.233  19.029   8.741 -0.0710  0.0167  0.1916
    1W        W36988  23.417  17.967   9.506  0.1255 -0.1225  0.1368
    1W        W36989  18.597  21.770   8.461  0.0314 -0.1628  0.0059
    1W        W36990   0.390  18.899   1.338  0.0160 -0.1517 -0.1512
    1W        W36991   5.347  22.116   7.606  0.2970 -0.2341 -0.0979
    1W        W36992  26.706   4.198   8.002  0.3630 -0.0416  0.0148
    1W        W36993  14.746  14.853   8.849  0.1882 -0.1819 -0.0299
    1W        W36994  22.275   1.226   8.375  0.1535 -0.3399 -0.1433
    1W        W36995   1.866  13.983   0.137  0.1548  0.2359 -0.0370
    1W        W36996  24.412  18.760   2.016 -0.0496  0.1405  0.1484
    1W        W36997   0.925  24.215   6.935  0.2883  0.2574  0.0573
    1W        W36998   2.502  24.236   7.263 -0.3718  0.0294 -0.1428
    1W        W36999   8.268  11.618   0.334  0.2462 -0.1999  0.0669
    1W        W37000  12.358  22.881   9.006  0.1284 -0.1072  0.0106
    1W        W37001  15.161   2.622   8.922 -0.2777  0.2540  0.0367
    1W        W37002   1.041  28.982   2.092  0.0306 -0.1488 -0.0194
    1W        W37003   8.543   0.279   2.311  0.4210  0.2306 -0.1488
    1W        W37004  22.005   0.807   2.088 -0.5169 -0.0767  0.2589
    1W        W37005   4.165  17.916   6.479  0.1521 -0.1913 -0.2359
    1W        W37006  11.097  21.549   7.116  0.2793  0.1851  0.0559
    1W        W37007  28.535  24.166   7.896  0.0346  0.0731 -0.1812
    1W        W37008  17.419   4.665   8.645 -0.6008  0.1154 -0.2803
    1W        W37009   4.178   2.852   2.030  0.0422  0.0743 -0.0690
    1W        W37010  21.814  14.685   0.678 -0.0453 -0.2649 -0.0361
    1W        W37011  20.765  26.223   7.153  0.0517  0.0221 -0.0752
    1W        W37012   3.440   0.727   9.562  0.1221 -0.2807 -0.2947
    1W        W37013  19.847   0.205   9.323  0.0350 -0.1549 -0.2622
    1W        W37014   6.304  21.163   8.031 -0.0675  0.1901 -0.0136
    1W        W37015  20.591  25.624   2.287 -0.2319  0.0812 -0.2319
    1W        W37016   9.838  21.516   1.317  0.3136 -0.2603  0.0642
    1W        W37017  12.550  25.908   8.013  0.2880  0.4591  0.0306
    1W        W37018   2.468  15.547   7.543 -0.0584 -0.0782  0.4818
    1W        W37019  15.515  17.843   7.675 -0.4169 -0.4488  0.1262
    1W        W37020  19.416  25.456   1.729  0.1290 -0.0535 -0.3179
    1W        W37021  18.913   8.146   0.359 -0.2836 -0.1569  0.0226
    1W        W37022   7.238  19.700   8.267 -0.0657 -0.2249  0.1308
    1W        W37023  25.170  24.982   8.522 -0.1656 -0.2050 -0.1052
    1W        W37024   8.159   8.255   7.434 -0.0742  0.2105  0.2089
    1W        W37025  28.053  15.043   8.207 -0.0655  0.2665 -0.2061
    1W        W37026  28.566   9.125   6.557 -0.1856 -0.0069  0.2148
    1W        W37027   9.420  23.065   9.339 -0.2281  0.0155  0.1725
    1W        W37028  15.848  23.074   8.263 -0.1390 -0.1507  0.1074
    1W        W37029  17.870   6.328   7.574  0.0482  0.1503  0.2276
    1W        W37030   7.657  13.829   2.124 -0.0796  0.2332  0.2589
    1W        W37031  21.283  27.913   7.086 -0.2198  0.2752  0.1485
    1W        W37032  21.277  13.892   8.781 -0.1156  0.3449 -0.0598
    1W        W37033  28.340   6.652   2.382  0.1156 -0.1676  0.2694
    1W        W37034   7.092   7.133   2.778  0.0693 -0.0542  0.2465
    1W        W37035  28.761  21.685   6.566 -0.1469 -0.2610 -0.4810
    1W        W37036  19.781   7.410   2.952  0.0269 -0.2263 -0.1950
    1W        W37037  22.386   4.352   0.087 -0.4830 -0.0781  0.2014
    1W        W37038  10.740  26.833   7.350  0.1465  0.1775 -0.0120
    1W        W37039  23.400  14.708   1.126  0.1266  0.2268 -0.0868
    1W        W37040  10.396  22.305   8.529 -0.3144 -0.4273  0.2929
    1W        W37041   3.567   5.877   1.762  0.1861 -0.2640  0.0617
    1W        W37042  20.792  13.443   0.679 -0.0733  0.3840 -0.2731
    1W        W37043  14.446   0.438   1.050  0.1259  0.1988  0.0838
    1W        W37044   5.528  25.378   0.817  0.0823  0.0313 -0.0539
    1W        W37045  12.217   0.022   2.647 -0.0259  0.3453  0.1328
    1W        W37046   0.169  14.636   8.332 -0.2693  0.0932  0.3110
    1W        W37047  22.358  12.634   6.313  0.0297 -0.4023  0.1826
    1W        W37048   8.118  16.945   6.873 -0.0515  0.0171 -0.0778
    1W        W37049  18.589   3.012   1.592  0.1074 -0.0896  0.1168
    1W        W37050  20.593   6.940   7.317 -0.0533 -0.0252  0.3651
    1W        W37051  25.594  22.841   1.030 -0.0813  0.3009 -0.0741
    1W        W37052  25.756  19.916   9.280 -0.1233  0.3966 -0.1008
    1W        W37053  17.732  14.906   1.066 -0.3569  0.0767 -0.0111
    1W        W37054   4.965  18.927   2.461 -0.2418 -0.0675  0.0759
    1W        W37055  23.264  19.773   8.783  0.2852 -0.2238  0.0060
    1W        W37056  26.750   6.510   0.357  0.1152 -0.2958 -0.1296
    1W        W37057  26.438  18.481   8.985 -0.0841 -0.0811  0.2849
    1W        W37058  14.174   8.150   0.155  0.0980 -0.0173 -0.0685
    1W        W37059   6.944  17.111   1.788 -0.0192 -0.1496  0.0168
    1W        W37060   3.004  14.370   0.532  0.0390 -0.2838  0.2226
    1W        W37061  10.650   6.212   3.539  0.0512 -0.1808 -0.0457
    1W        W37062   3.527  20.953   6.559 -0.2561 -0.3148  0.1071
    1W        W37063  27.639   7.627   7.847 -0.0097 -0.0071  0.3044
    1W        W37064  13.306  25.079   6.941 -0.0204  0.0188  0.1281
    1W        W37065  28.314   9.369   0.201  0.0724  0.0119  0.2418
    1W        W37066  23.413  21.607   7.098  0.1482 -0.2031 -0.2106
    1W        W37067  13.496   7.837   8.928  0.0574  0.0403  0.3548
    1W        W37068  22.216  14.327   0.685 -0.2634 -0.3174 -0.1094
    1W        W37069   3.278  10.455   0.322  0.0923 -0.0974  0.2004
    1W        W37070  11.022  17.404   1.360  0.1466  0.0412 -0.1694
    1W        W37071   8.746  16.269   9.122  0.1408 -0.0034 -0.1224
    1W        W37072  22.216   3.108   9.252  0.2849  0.3611  0.1073
    1W        W37073   8.107   7.488   0.863  0.1623  0.3065 -0.1765
    1W        W37074  27.859   2.938   7.908 -0.1214  0.2516 -0.0548
    1W        W37075  14.862  29.360   2.824 -0.3186  0.0860 -0.2569
    1W        W37076  10.276   6.099   8.197 -0.0266 -0.3102 -0.0773
    1W        W37077   5.238   1.357   7.793  0.0968  0.1949 -0.3507
    1W        W37078   0.097  18.538   7.761  0.3359  0.0258  0.3169
    1W        W37079  26.253  13.276   9.432 -0.1919  0.1173 -0.1644
    1W        W37080  16.890  20.361   7.676  0.0125  0.0058 -0.1235
    1W        W37081  14.001   4.949   8.483  0.2984 -0.0365  0.1067
    1W        W37082   0.794   7.027   1.483  0.0320  0.5095  0.2696
    1W        W37083  14.832  12.247   9.469  0.2474  0.4624  0.0213
    1W        W37084   1.645  24.191   1.280 -0.1097 -0.1277 -0.3323
    1W        W37085  26.382  28.621   2.357 -0.1674 -0.0394 -0.1370
    1W        W37086  13.135  15.160   8.409 -0.2641  0.0002 -0.1199
    1W        W37087  23.069   0.135   0.949  0.0337  0.1582 -0.0848
    1W        W37088  28.790  17.440   1.496 -0.0484  0.0639  0.3079
    1W        W37089  29.087  24.891   7.143 -0.0094  0.0669 -0.2035
    1W        W37090  27.091  18.488   7.705 -0.1179  0.0484  0.0424
    1W        W37091  25.675  12.735   7.834  0.0266  0.1108  0.0055
    1W        W37092   0.477   7.805   0.441  0.2988  0.4119 -0.1885
    1W        W37093  20.510  18.921   7.883  0.2813  0.1295  0.0458
    1W        W37094  28.774  19.988   0.986  0.0926 -0.0216  0.0958
    1W        W37095  11.236  10.529   1.132  0.1920  0.2013  0.1676
    1W        W37096  23.970   0.690   7.530  0.0459 -0.0933  0.1385
    1W        W37097  16.169  26.227   9.219 -0.1186 -0.3438  0.0922
    1W        W37098  19.635   8.585   8.375 -0.2007 -0.1588  0.1350
    1W        W37099  22.765  14.892   1.715  0.4390  0.0431  0.2793
    1W        W37100  12.537   6.165   2.697 -0.1841  0.1180  0.2260
    1W        W37101   7.836  15.947   6.692 -0.0210 -0.0172  0.1327
    1W        W37102  29.202   3.389   9.304 -0.0932  0.4075 -0.2280
    1W        W37103  14.091  26.238   8.358 -0.0570  0.0652  0.2131
    1W        W37104   5.409  10.755   8.693 -0.0530 -0.2389 -0.0991
    1W        W37105   3.661  23.331   6.297  0.1262  0.0833 -0.1056
    1W        W37106  23.232   1.433   6.653  0.0035 -0.1803 -0.2760
    1W        W37107   9.304  15.079   8.852 -0.0090  0.2388  0.0353
    1W        W37108   1.964   4.151   1.859 -0.3176 -0.3756 -0.1776
    1W        W37109  12.472   0.725   2.375 -0.0372  0.2064 -0.2805
    1W        W37110  23.083  19.259   8.011  0.0307 -0.3995 -0.0155
    1W        W37111  11.240  21.989   1.375 -0.0707 -0.1835  0.1414
    1W        W37112  17.663   4.144   6.962 -0.1437 -0.1363  0.3649
    1W        W37113  20.932  16.768   8.263  0.1670 -0.0055 -0.0294
    1W        W37114   9.732  20.325   7.373  0.0114  0.0039 -0.1049
    1W        W37115   9.735  12.200   7.493  0.2000  0.4228  0.1531
    1W        W37116   4.079  21.091   9.327 -0.0452 -0.3284  0.1365
    1W        W37117   1.545  16.441   9.391  0.1979  0.0029  0.0729
    1W        W37118  20.165  10.316   0.308 -0.1766 -0.1119  0.3640
    1W        W37119  20.284   6.193   6.789 -0.2746 -0.1505 -0.1624
    1W        W37120   9.546  24.545   6.986 -0.0213 -0.3189 -0.1196
    1W        W37121  18.436  26.763   8.470  0.3351 -0.0202  0.1976
    1W        W37122   0.423   7.612   6.985 -0.0179  0.0790 -0.1487
    1W        W37123  12.047  16.584   1.395  0.1100 -0.0240 -0.2820
    1W        W37124  21.927   8.590   0.172  0.3487 -0.1694 -0.2227
    1W        W37125  18.544   3.031   0.462 -0.0648  0.0322 -0.2861
    1W        W37126  23.622  13.025   8.130 -0.1771 -0.3150  0.1031
    1W        W37127  11.092  29.122   2.256 -0.2624 -0.0680  0.1606
    1W        W37128  23.918   8.063   1.129  0.0595 -0.1938 -0.1482
    1W        W37129  28.422  15.173   9.115 -0.2887 -0.0028  0.0525
    1W        W37130  20.353  25.594   1.863  0.0423  0.2458 -0.1810
    1W        W37131  24.388  24.627   8.856  0.0632  0.1068 -0.2830
    1W        W37132  19.521   2.522   2.401 -0.2445  0.3796 -0.2442
    1W        W37133   1.117   0.671   6.560  0.0444  0.0611 -0.0684
    1W        W37134  21.797  29.173   6.655 -0.2678 -0.4319 -0.2640
    1W        W37135  12.384  10.343   2.602 -0.0137  0.1190 -0.1924
    1W        W37136  26.104   4.675   5.773  0.1795 -0.0517  0.1326
    1W        W37137   4.863   4.144   1.003 -0.1612  0.0858  0.2525
    1W        W37138   8.416  20.180   8.609 -0.0832 -0.2368  0.0022
    1W        W37139  12.230   3.962   1.751  0.1531  0.2096 -0.4786
    1W        W37140   5.407   7.736   0.214  0.0366  0.2026  0.0053
    1W        W37141  10.443  10.619   0.105  0.2627  0.3424  0.0505
    1W        W37142  22.087   3.950   8.859  0.0969 -0.0039  0.0172
    1W        W37143  24.922  13.198   6.464 -0.2989  0.0448  0.0603
    1W        W37144  13.267   7.020   7.060 -0.1396  0.0247 -0.0621
    1W        W37145   8.205  25.434   2.063  0.0098 -0.3066 -0.0936
    1W        W37146  11.221   1.715   9.681 -0.0521  0.1409 -0.2430
    1W        W37147   4.719  13.098   7.601 -0.1443 -0.1344  0.4510
    1W        W37148   7.937  20.390   7.971  0.2051  0.1068 -0.1515
    1W        W37149   0.856  18.569   2.637  0.0377 -0.0151 -0.3850
    1W        W37150  19.585  23.763   3.061 -0.1114 -0.0835  0.0408
    1W        W37151   0.449  18.200   8.081 -0.1337 -0.2945 -0.0356
    1W        W37152  16.359  13.961   0.631 -0.0986  0.0940 -0.0539
    1W        W37153  10.443  10.940   8.775 -0.0957 -0.2239 -0.1733
    1W        W37154  16.560   9.328   1.579 -0.0321 -0.4451  0.4478
    1W        W37155   2.167   6.600   9.413 -0.0135  0.2509 -0.1957
    1W        W37156  16.838  25.236   1.567  0.0354  0.2779  0.0557
    1W        W37157  19.486  13.116   9.413  0.2014  0.1840 -0.1986
    1W        W37158  18.236   3.509   7.101 -0.2890 -0.0093 -0.0297
    1W        W37159  18.148   4.535   9.129  0.4763  0.4090  0.1201
    1W        W37160  26.867  11.596   2.776 -0.0061 -0.1363  0.0586
    1W        W37161  25.886  10.631   6.386 -0.2464  0.1471  0.0166
    1W        W37162  10.273  21.076   9.424 -0.3279  0.2865 -0.0347
    1W        W37163   4.127  10.515   6.415  0.0844 -0.1804 -0.3930
    1W        W37164  27.928  27.744   2.427 -0.2357 -0.0810  0.1657
    1W        W37165  22.277  15.315   6.434 -0.1037  0.1731  0.1351
    1W        W37166  16.289  14.897   0.953  0.0250  0.1937  0.0236
    1W        W37167  19.941  14.963   9.009  0.0184 -0.1210  0.0205
    1W        W37168  25.912  26.884   6.829 -0.0655  0.0513 -0.0150
    1W        W37169   2.928   0.310   0.044 -0.1940 -0.0676  0.2179
    1W        W37170  28.616  18.559   7.765  0.0464 -0.1647  0.1500
    1W        W37171  29.081   9.651   6.078  0.3733 -0.0844  0.2933
    1W        W37172  25.020  28.228   1.533 -0.1243 -0.1617  0.0156
    1W        W37173   9.796  12.034   0.690 -0.1455  0.1652 -0.1059
    1W        W37174  18.803  22.663   8.958 -0.0738 -0.1116 -0.1728
    1W        W37175  25.800  24.237   7.484 -0.2300  0.0571 -0.0276
    1W        W37176  10.621   7.217   9.540 -0.2339  0.1178  0.2073
    1W        W37177   5.108   5.948   9.535 -0.0736 -0.0788 -0.0498
    1W        W37178   8.431   8.564   7.656 -0.1750  0.2032  0.2585
    1W        W37179   3.305   9.481   1.207 -0.3341  0.1586 -0.0882
    1W        W37180   7.549   9.726   1.407  0.3474 -0.1804 -0.1228
    1W        W37181   4.696   0.595   7.320  0.0780  0.0991  0.2092
    1W        W37182   8.247  28.959   8.724 -0.1663  0.1007  0.3306
    1W        W37183   5.047   6.968   2.054 -0.1392 -0.1683  0.1092
    1W        W37184  16.539   8.316   8.921  0.1342  0.0406  0.0852
    1W        W37185   2.807   1.195   2.910 -0.0628  0.3541  0.4027
    1W        W37186   4.880  15.514   7.166  0.0843  0.3154 -0.3134
    1W        W37187   9.084  24.838   9.070 -0.0802 -0.1473  0.0283
    1W        W37188   1.975   3.828   1.419  0.2118 -0.0726 -0.2698
    1W        W37189  18.010  25.120   9.669 -0.0250 -0.2745 -0.1113
    1W        W37190  13.327   9.672   0.181 -0.3521 -0.1098  0.1153
    1W        W37191  21.126   2.207   8.806  0.1569 -0.4443  0.0450
    1W        W37192  13.738   7.513   9.321 -0.2810  0.1095  0.0359
    1W        W37193  29.308  11.991   0.614  0.3485 -0.3235  0.1168
    1W        W37194  10.714  27.201   2.374  0.2199  0.4753  0.1770
    1W        W37195   6.401  22.063   1.827 -0.0356 -0.0348 -0.0201
    1W        W37196  24.316  22.160   7.954  0.2012  0.0081 -0.1592
    1W        W37197   6.720   0.790   3.234  0.0916 -0.1246 -0.1103
    1W        W37198   7.927  25.380   7.271 -0.0586 -0.1478  0.3305
    1W        W37199  26.169   4.621   0.769 -0.1747 -0.0765 -0.0805
    1W        W37200  24.687  24.363   9.139  0.4204  0.0063  0.0347
    1W        W37201  10.807  28.965   9.324 -0.0647 -0.0212  0.2351
    1W        W37202   1.880  18.781   9.087 -0.1900 -0.0473 -0.3044
    1W        W37203   4.952  19.603   6.724  0.1930  0.1357  0.0131
    1W        W37204  24.777  13.894   9.064 -0.5294  0.0242 -0.3145
    1W        W37205   8.381  27.194   8.956 -0.1362 -0.1260  0.1050
    1W        W37206   4.136  22.591   8.782  0.0777  0.0257  0.1815
    1W        W37207  27.815   7.706   1.610 -0.2563  0.1343 -0.0019
    1W        W37208   5.473  18.262   9.275  0.0445 -0.0713 -0.1657
    1W        W37209  15.625  11.294   9.298 -0.2577  0.0687  0.1681
    1W        W37210   4.700  10.810   0.346  0.0966 -0.2549 -0.1003
    1W        W37211  25.265  26.826   1.765 -0.0179 -0.1071 -0.0503
    1W        W37212   7.648  20.246   9.520 -0.0081 -0.0794 -0.2304
    1W        W37213   8.537  28.633   2.139  0.0855  0.3322  0.1798
    1W        W37214   3.509   0.277   2.884 -0.2591 -0.3322 -0.1678
    1W        W37215  26.315   8.762   2.715  0.1061 -0.0415  0.0612
    1W        W37216   6.767  13.794   0.708  0.2152  0.0139  0.3151
    1W        W37217  20.272  22.537   7.088  0.3076  0.1733 -0.1644
    1W        W37218  29.124  26.653   9.599  0.0179 -0.1377 -0.3951
    1W        W37219   2.752  20.074   1.630  0.1601  0.1533 -0.2153
    1W        W37220  16.419   8.600   2.778 -0.1276  0.0007  0.0681
    1W        W37221  11.781   0.318   0.001 -0.4044 -0.2042 -0.1318
    1W        W37222   2.431   6.879   6.469  0.0702 -0.1488  0.1613
    1W        W37223  13.072   3.493   1.650  0.2402  0.0910 -0.2646
    1W        W37224   2.292  10.061   0.506  0.3014  0.0235  0.5302
    1W        W37225  10.507  10.289   2.737  0.1449 -0.0391  0.0324
    1W        W37226  13.410  24.893   8.625  0.0593  0.0716 -0.0761
    1W        W37227  27.914  14.140   7.042 -0.4127  0.1717 -0.0155
    1W        W37228  21.799  20.877   0.917  0.2686 -0.4619  0.1935
    1W        W37229   5.985   2.425   2.640  0.0498 -0.0436  0.0715
    1W        W37230  16.147   0.405   8.936 -0.1057 -0.3019 -0.1660
    1W        W37231  26.281  10.714   6.992  0.1691  0.0082 -0.0728
    1W        W37232  27.453   2.737   3.169  0.1916 -0.1190  0.2484
    1W        W37233  18.751   9.230   0.975 -0.1281  0.3787  0.0936
    1W        W37234  27.870  21.905   9.499 -0.2128 -0.1552 -0.2325
    1W        W37235  16.663  20.937   7.746  0.3108  0.0641 -0.0616
    1W        W37236   7.344   4.150   0.547  0.4369  0.0435  0.0951
    1W        W37237   3.295  18.511   1.162  0.2576 -0.0028 -0.0036
    1W        W37238  18.695  21.248   2.704 -0.2540 -0.0801 -0.1627
    1W        W37239  25.851  10.608   9.135  0.3102  0.1380  0.2147
    1W        W37240   4.719  14.333   7.710  0.0930 -0.2225  0.2141
    1W        W37241  16.055  22.972   2.075 -0.2851 -0.2625  0.0924
    1W        W37242  26.032  16.091   9.592  0.1497  0.1180 -0.1646
    1W        W37243  14.752  19.946   1.152 -0.1969 -0.2868  0.0272
    1W        W37244  28.586  12.288   7.711 -0.1533  0.0739  0.1446
    1W        W37245  17.421  28.031   8.421  0.2911  0.1807 -0.0643
    1W        W37246  21.689   5.730   7.417 -0.0402  0.1973 -0.3524
    1W        W37247  15.607   9.328   1.677  0.0192 -0.0128 -0.0143
    1W        W37248  11.285  13.440   1.480  0.1642 -0.3672  0.0901
    1W        W37249  12.600  25.179   1.072  0.0343 -0.1300  0.5026
    1W        W37250  10.758  22.367   7.531 -0.1334  0.2226  0.1769
    1W        W37251   7.583  19.138   1.456  0.0603 -0.1851 -0.0464
    1W        W37252  26.414   1.579   6.743 -0.0316 -0.0685  0.0731
    1W        W37253   0.625  24.601   7.184 -0.0983 -0.1567  0.0233
    1W        W37254  24.021   4.358   6.253  0.2150  0.3398  0.2005
    1W        W37255   4.824  25.034   0.058  0.2733  0.0662 -0.0160
    1W        W37256   4.869  14.884   7.897  0.2135 -0.1695 -0.1232
    1W        W37257   9.026   2.917   8.625  0.1223 -0.0351 -0.0161
    1W        W37258  29.042  11.893   8.708  0.0885  0.0248  0.2304
    1W        W37259   9.967  26.153   2.710  0.4007 -0.0561 -0.0690
    1W        W37260  14.237  10.664   7.913  0.1407 -0.0783 -0.0297
    1W        W37261  28.931  10.230   1.162 -0.0269 -0.1620  0.0951
    1W        W37262   3.703   6.044   7.829 -0.1562  0.0386  0.0340
    1W        W37263  22.852   5.002   1.736 -0.1537  0.0162 -0.1443
    1W        W37264  11.888  14.245   1.982  0.1586 -0.0094 -0.0933
    1W        W37265  12.872   1.733   9.483  0.0185 -0.1259 -0.0316
    1W        W37266  22.554  28.246   8.679 -0.1435 -0.2417 -0.1170
    1W        W37267  16.675   4.932   7.891 -0.2846  0.0621  0.1732
    1W        W37268  18.163  16.849   2.719 -0.0090  0.0558 -0.1112
    1W        W37269  25.879  18.270   0.317 -0.1141  0.1701  0.0339
    1W        W37270  14.763  22.979   2.809  0.1030 -0.0753 -0.0493
    1W        W37271  27.543  13.673   2.062  0.1528 -0.1964 -0.3518
    1W        W37272  23.640   4.946   8.644  0.0606  0.0238  0.3042
    1W        W37273  25.743  26.947   1.596  0.1747 -0.1397  0.0725
    1W        W37274   9.080  21.011   1.202  0.0160  0.0957 -0.0428
    1W        W37275   0.346  12.597   8.050  0.0825 -0.0194  0.2989
    1W        W37276  12.541   0.014   3.102 -0.2730 -0.0374  0.1303
    1W        W37277   2.637  19.099   7.893 -0.0674 -0.0078 -0.0080
    1W        W37278  25.158  26.205   7.209 -0.3282 -0.2232 -0.1472
    1W        W37279  11.250   3.543   8.885  0.1654  0.3147 -0.1013
    1W        W37280   2.788  22.763   6.374 -0.1952 -0.1239  0.1865
    1W        W37281  22.321  14.642   8.994 -0.1858 -0.0396 -0.1811
    1W        W37282  24.779  19.485   2.309  0.1231  0.0368 -0.1783
    1W        W37283  24.899  23.851   9.078 -0.0154  0.1135  0.3680
    1W        W37284  10.120   5.855   1.117  0.2631 -0.3731  0.3387
    1W        W37285  27.377  18.174   9.516 -0.0568 -0.3848 -0.1401
    1W        W37286  24.891   9.154   9.544  0.3072 -0.2037 -0.1354
    1W        W37287   5.822  11.007   8.760  0.1643 -0.1545  0.0599
    1W        W37288  14.648  21.574   1.679  0.3932 -0.0393 -0.2584
    1W        W37289   0.908  27.738   6.459 -0.0918  0.1261  0.2590
    1W        W37290   1.672   8.305   1.138 -0.1440  0.0383 -0.0492
    1W        W37291  18.474  15.991   8.334 -0.0035 -0.0138  0.1247
    1W        W37292  11.703  11.137   1.921 -0.0939  0.2490  0.0134
    1W        W37293  25.869   3.138   2.659 -0.1227  0.0225 -0.1280
    1W        W37294  26.052   2.498   6.512  0.2731  0.1819 -0.2687
    1W        W37295  13.194   8.763   8.669  0.0578  0.1952  0.2658
    1W        W37296  14.211  21.242   6.830 -0.1022 -0.1213 -0.1109
    1W        W37297  19.895  15.686   0.001 -0.0007  0.1020  0.4987
    1W        W37298  15.419   4.387   9.269  0.1077 -0.1011  0.2298
    1W        W37299  24.085   5.665   6.584  0.1250 -0.1610 -0.1458
    1W        W37300  21.216  12.434   3.018  0.1258  0.0413  0.2492
    1W        W37301  16.307   2.527   9.580 -0.1179  0.2147  0.0595
    1W        W37302  25.457   7.403   7.250  0.0631 -0.2503 -0.0504
    1W        W37303  24.650   2.361   0.117 -0.1967  0.1229  0.2128
    1W        W37304   1.981   7.609   9.374  0.1233 -0.0381 -0.2481
    1W        W37305  12.129   4.061   7.782  0.1093 -0.3296 -0.1136
    1W        W37306   6.936   6.450   0.846  0.2699  0.0582  0.1468
    1W        W37307  15.298  13.448   0.360 -0.1409 -0.1546 -0.0777
    1W        W37308  23.600   1.283   6.233 -0.0666  0.0547  0.1989
    1W        W37309  27.592  28.092   3.166 -0.3383 -0.0213  0.3492
    1W        W37310  28.929   8.601   9.629 -0.1278  0.1426 -0.1636
    1W        W37311  17.963   8.837   8.847 -0.1075  0.1087 -0.2566
    1W        W37312  14.314   6.341   8.309  0.0123  0.0230  0.1137
    1W        W37313  23.790  14.788   0.091  0.0599 -0.0940  0.0805
    1W        W37314  24.169   6.147   2.543 -0.0444  0.3951 -0.2312
    1W        W37315  23.269  20.469   0.079 -0.1955 -0.0840 -0.1931
    1W        W37316  25.558  12.802   5.951 -0.1584 -0.2660  0.2144
    1W        W37317   8.595  23.613   0.746 -0.0482  0.3171 -0.1751
    1W        W37318  15.809  21.556   1.299  0.0345  0.0107  0.0908
    1W        W37319   1.386   1.462   7.851  0.2505  0.1343  0.1512
    1W        W37320  22.657   6.346   0.933  0.0515  0.0740 -0.0815
    1W        W37321   2.649   1.091   5.833 -0.0369 -0.2579  0.0381
    1W        W37322   4.809   4.546   6.055  0.1342  0.2774  0.1383
    1W        W37323  16.165  11.186   2.619 -0.0502 -0.0490 -0.0768
    1W        W37324  24.187  28.340   6.858  0.0111 -0.0191  0.1766
    1W        W37325   1.649   5.987   9.187 -0.0449  0.1062  0.0594
    1W        W37326  27.201   7.757   6.960  0.0568  0.0668 -0.1367
    1W        W37327  21.142   2.624   8.251  0.0383 -0.0069  0.0497
    1W        W37328  22.072  21.061   1.267 -0.2306  0.0464 -0.4527
    1W        W37329  16.549   9.383   1.017 -0.2654 -0.0771 -0.1516
    1W        W37330   7.884   3.149   6.911  0.0033  0.2132 -0.0586
    1W        W37331  27.769   5.035   9.525  0.0437 -0.2247  0.2231
    1W        W37332  26.092   4.907   6.649 -0.2839  0.0766 -0.3323
    1W        W37333   5.738   6.212   7.317  0.1576 -0.0226 -0.1405
    1W        W37334  18.929  18.651   2.403  0.3137 -0.0254 -0.0870
    1W        W37335   9.040   5.778   2.344  0.0606 -0.0952 -0.3222
    1W        W37336  15.761  12.979   7.461  0.2723  0.1915  0.2126
    1W        W37337  16.507  27.601   9.175 -0.3740  0.2274 -0.3156
    1W        W37338  27.397  28.593   2.278 -0.1794 -0.2199 -0.2286
    1W        W37339   4.171  17.321   1.496  0.3739  0.1684  0.1549
    1W        W37340  17.405  28.234   0.228  0.0059 -0.2390  0.0012
    1W        W37341  25.027  16.761   6.473  0.1596  0.0161  0.0644
    1W        W37342  12.929  13.684   9.310 -0.3832  0.2033 -0.3758
    1W        W37343  22.081   7.113   2.293 -0.0810  0.0039  0.1557
    1W        W37344   0.257  16.213   2.122 -0.0228 -0.0806  0.2384
    1W        W37345  22.761  20.374   2.700 -0.1976 -0.2029  0.4873
    1W        W37346   9.474  14.050   0.874 -0.3502 -0.2483  0.1392
    1W        W37347  28.800  22.100   9.149  0.0540  0.1929 -0.0016
    1W        W37348  13.928  12.162   9.096  0.1853  0.0580  0.0135
    1W        W37349   6.047  16.969   9.266 -0.0346  0.0361  0.3370
    1W        W37350   3.560  10.547   7.033 -0.3007  0.0970 -0.2188
    1W        W37351  24.590  24.779   8.011  0.0736  0.0132  0.3595
    1W        W37352  24.175  18.349   7.665  0.0495 -0.1994 -0.2357
    1W        W37353  18.291  12.564   1.185  0.0127  0.1774  0.0459
    1W        W37354   8.291  21.287   0.865 -0.2335 -0.0249 -0.1220
    1W        W37355  10.593  10.536   1.044 -0.1658  0.1522  0.0128
    1W        W37356  20.459  15.109   2.460 -0.2129  0.0546  0.2756
    1W        W37357   5.570  18.825   7.662  0.4401  0.0667 -0.1210
    1W        W37358  24.297  22.258   0.960  0.2343  0.0524 -0.0343
    1W        W37359  11.951   7.168   1.884 -0.3867 -0.2906 -0.2716
    1W        W37360  10.793  19.428   1.209 -0.2150  0.6128  0.1148
    1W        W37361  19.841  16.235   0.766  0.0053 -0.0837 -0.1823
    1W        W37362  22.938  11.253   9.528  0.0400  0.1207  0.3968
    1W        W37363   3.033   6.370   0.937  0.2572  0.0911 -0.1161
    1W        W37364  29.143   9.116   8.538 -0.2725 -0.1918  0.1118
    1W        W37365   4.168  11.894   2.178  0.4032  0.0067 -0.0315
    1W        W37366   4.900  24.819   6.693  0.0734  0.2456  0.2663
    1W        W37367   6.124   1.886   8.016 -0.2503 -0.0833  0.0111
    1W        W37368   8.214   8.991   7.697 -0.0910 -0.1986  0.1198
    1W        W37369   1.155   4.553   5.475  0.0034 -0.3079  0.0514
    1W        W37370  19.658  28.714   1.908 -0.0297 -0.1602 -0.2930
    1W        W37371  23.505  23.995   3.267  0.0593  0.0846 -0.0902
    1W        W37372   3.172  15.409   6.823 -0.2056 -0.0525  0.0384
    1W        W37373   4.450  26.243   6.562 -0.0838 -0.0715  0.1081
    1W        W37374  16.879   1.683   8.492 -0.0304 -0.0295  0.2151
    1W        W37375  27.358  26.344   9.348  0.1289 -0.2569  0.1392
    1W        W37376   8.888  27.117   3.111  0.0766  0.1552  0.0615
    1W        W37377   2.795   7.983   6.535 -0.0474 -0.0936 -0.2337
    1W        W37378   4.698  20.246   7.936  0.2323 -0.2923  0.3061
    1W        W37379   1.186  12.880   7.865 -0.0318  0.1415  0.1047
    1W        W37380  26.799  21.863   2.767 -0.1879  0.4196  0.1335
    1W        W37381   7.266  13.424   2.291 -0.0560 -0.4663  0.2825
    1W        W37382  21.002  14.088   1.694 -0.0460  0.1961  0.3001
    1W        W37383  21.101   2.116   6.790  0.1403 -0.1300  0.0106
    1W        W37384  16.866   5.982   8.453 -0.1378 -0.2229 -0.1292
    1W        W37385  21.276  23.522   0.395  0.1167  0.2038  0.1201
    1W        W37386  12.805   7.260   7.666 -0.0024 -0.0931 -0.0336
    1W        W37387  20.793  10.346   9.636  0.0923  0.3439 -0.3344
    1W        W37388  22.252  25.338   0.186  0.0843 -0.3345 -0.0070
    1W        W37389   2.271   5.517   6.316  0.3285  0.1050 -0.3137
    1W        W37390  13.312  21.958   7.220  0.0199  0.0763  0.0148
    1W        W37391  13.947   2.009   2.268  0.0804 -0.0508 -0.0878
    1W        W37392  28.430  16.810   6.848 -0.2455  0.0752 -0.0815
    1W        W37393  10.673  19.941   1.303 -0.2074 -0.0375 -0.0607
    1W        W37394   9.805   4.946   0.822  0.2447  0.4383  0.1677
    1W        W37395  14.264  28.766   7.969 -0.0892  0.0588 -0.1262
    1W        W37396  24.776  20.742   9.578 -0.2552  0.1824 -0.0770
    1W        W37397  12.033  11.270   2.221 -0.2239 -0.0449  0.2319
    1W        W37398  13.767   3.727   7.916  0.0868  0.0432 -0.2542
    1W        W37399   4.832  15.120   1.661 -0.3506  0.2122 -0.1970
    1W        W37400  10.312   8.048   0.796 -0.0494  0.0497  0.3456
    1W        W37401  13.883  21.611   9.187  0.0650 -0.0974  0.0924
    1W        W37402  11.661  25.988   3.966 -0.3258 -0.1425  0.0244
    1W        W37403   9.152  28.089   8.326  0.1404  0.2732 -0.0069
    1W        W37404  27.550   2.656   0.897  0.0696  0.0024 -0.1842
    1W        W37405  22.929   1.922   6.581  0.0021 -0.1375 -0.1003
    1W        W37406  25.694  24.003   3.026  0.3946  0.4242  0.2163
    1W        W37407   8.124  15.803   7.115  0.1887  0.0098 -0.2370
    1W        W37408  12.677  19.539   8.503 -0.1015  0.1590  0.1470
    1W        W37409  23.672   9.499   2.999  0.0850 -0.1633  0.0736
    1W        W37410  16.685   7.661   1.423  0.1207 -0.0140  0.0920
    1W        W37411   2.415   3.624   2.291 -0.1971 -0.0116  0.0700
    1W        W37412   1.376  20.840   1.313  0.0200  0.1520  0.1656
    1W        W37413   5.496  27.337   8.968  0.0284 -0.0730 -0.2788
    1W        W37414  15.807   4.867   0.302 -0.2658  0.0499  0.1630
    1W        W37415  21.428  20.348   2.427 -0.0372  0.0570 -0.0643
    1W        W37416   1.314  18.469   1.290 -0.0445 -0.0844  0.2116
    1W        W37417  22.914   7.090   6.159  0.0106  0.0963  0.0453
    1W        W37418   1.043  16.313   9.410  0.1895 -0.1232 -0.0063
    1W        W37419   8.187   0.088   1.819 -0.0416 -0.0867 -0.1962
    1W        W37420  28.243  25.057   8.371 -0.2394  0.2966  0.1740
    1W        W37421   6.246   6.881   0.575 -0.0605  0.0388 -0.1183
    1W        W37422  19.545   9.678   1.438  0.0797 -0.2726  0.3450
    1W        W37423  15.933  23.182   7.217  0.2030 -0.3322  0.1121
    1W        W37424  25.059   2.837   6.737  0.1814  0.2160  0.1801
    1W        W37425  11.881  27.056   0.825 -0.0469  0.1529 -0.0312
    1W        W37426  26.779  12.642   9.566 -0.3693  0.0793 -0.0195
    1W        W37427   6.389  19.279   5.734  0.1361  0.0307  0.1003
    1W        W37428   2.176   1.097   2.240  0.1993  0.0734 -0.3392
    1W        W37429   6.537   3.200   3.461  0.1494  0.1154 -0.0408
    1W        W37430  26.296  21.946   1.470  0.1364  0.0164 -0.0198
    1W        W37431  10.658  13.649   6.769  0.0633 -0.1715 -0.3307
    1W        W37432  22.068  29.288   9.020 -0.2672  0.1732  0.0546
    1W        W37433  27.823   5.894   2.171  0.3439  0.1996 -0.1551
    1W        W37434   7.266  14.511   7.700 -0.1126  0.2377 -0.3653
    1W        W37435   6.708   6.150   1.254 -0.0132 -0.0055  0.3674
    1W        W37436  22.034  28.787   7.407 -0.1292  0.2209 -0.3406
    1W        W37437  11.443   6.847   7.741 -0.0653 -0.2158  0.0353
    1W        W37438   7.430   5.379   8.032  0.0477  0.0086 -0.2843
    1W        W37439   1.026   5.015   8.179  0.0682 -0.2424  0.1531
    1W        W37440   6.097  12.214   0.874 -0.0870  0.1946 -0.1486
    1W        W37441   0.246  17.710   7.324 -0.2703  0.2928  0.1507
    1W        W37442  26.428  25.368   7.333  0.3269  0.2097  0.2271
    1W        W37443   0.499   3.254   8.618 -0.1027 -0.0133 -0.2736
    1W        W37444  29.111  17.837   6.007 -0.1102  0.1063  0.1292
    1W        W37445   9.821  14.343   1.047 -0.4359  0.0523  0.1925
    1W        W37446  23.389   9.955   8.508 -0.0615 -0.0271 -0.0518
    1W        W37447  14.864  25.735   1.231 -0.2608  0.0974  0.0966
    1W        W37448   6.236   7.697   8.162  0.1383 -0.2085 -0.2754
    1W        W37449   5.348  11.832   8.452  0.1530  0.0792 -0.1318
    1W        W37450   0.609   0.603   6.588 -0.0022 -0.1380 -0.2916
    1W        W37451   7.942  20.277   8.700  0.1547 -0.2132  0.1742
    1W        W37452   0.076   9.254   2.023 -0.1346 -0.0103  0.0448
    1W        W37453  13.498   5.653   2.727  0.0255  0.1159 -0.1818
    1W        W37454  14.599  19.136   1.000  0.0050 -0.0630  0.3815
    1W        W37455  25.814  18.191   6.971 -0.1064  0.3658  0.2455
    1W        W37456  27.934   3.487   7.066 -0.0296 -0.0456  0.0030
    1W        W37457   2.270  21.314   6.830 -0.1093  0.2100  0.3454
    1W        W37458   8.080  13.431   1.083 -0.3156  0.1084  0.0954
    1W        W37459   7.138   1.231   7.757  0.1293  0.1408 -0.0370
    1W        W37460  22.904   5.857   0.910 -0.1649  0.1911 -0.0455
    1W        W37461  15.433  20.065   7.959 -0.0713 -0.0915 -0.0153
    1W        W37462  16.126   1.050   1.786  0.1035  0.4277  0.1958
    1W        W37463   0.926  20.586   9.307  0.1691 -0.0264 -0.2511
    1W        W37464   3.355   4.498   1.205  0.0114  0.1537  0.1260
    1W        W37465  12.489  15.862   8.122 -0.0116  0.2284 -0.2133
    1W        W37466   4.825  24.504   7.634 -0.1048  0.4161 -0.1916
    1W        W37467  19.153  12.834   1.520 -0.0387 -0.1427  0.0323
    1W        W37468  24.540  16.775   7.419  0.1804  0.1933 -0.2085
    1W        W37469  12.854  12.055   0.524 -0.1849  0.0848 -0.0907
    1W        W37470   3.555  26.426   9.284  0.0974 -0.1081  0.1318
    1W        W37471  27.945  11.112   6.701 -0.2963  0.0773  0.2011
    1W        W37472   1.385  11.637   1.188 -0.2039  0.0942  0.0334
    1W        W37473  10.262   3.834   2.713 -0.0015  0.0165 -0.3373
    1W        W37474  22.134  25.294   8.634 -0.2980 -0.0757 -0.1875
    1W        W37475  12.922  25.485   2.826  0.0782 -0.1715 -0.0370
    1W        W37476  21.509  12.906   6.371  0.1144  0.2449  0.1093
    1W        W37477  15.102  12.349   1.596 -0.1678  0.1475 -0.1217
    1W        W37478  18.061  12.422   7.842 -0.1233 -0.0921  0.1228
    1W        W37479  27.566  23.158   7.837  0.2424 -0.1340 -0.1856
    1W        W37480   8.737  23.828   1.990 -0.2899  0.1391 -0.0381
    1W        W37481  27.701   9.221   8.587  0.0975  0.1047  0.0676
    1W        W37482  23.695  18.272   2.301 -0.1110 -0.0608 -0.2683
    1W        W37483  22.843  26.364   8.067  0.1027  0.4643  0.0711
    1W        W37484  26.765  17.646   9.015 -0.0537  0.1047  0.2346
    1W        W37485  20.961   7.551   8.678  0.2988 -0.0776  0.0074
    1W        W37486  28.453  11.469   1.079 -0.0615  0.0131 -0.1815
    1W        W37487  17.487  20.862   1.696 -0.0759 -0.0748 -0.0487
    1W        W37488  13.034  17.817   0.743 -0.3736  0.1777  0.1337
    1W        W37489   3.390   2.370   1.366  0.0396  0.2089 -0.2754
    1W        W37490   6.117   4.228   8.497  0.4313 -0.1308  0.0762
    1W        W37491  16.981  20.299   0.046  0.1183  0.0202  0.0567
    1W        W37492  25.413  25.089   7.671  0.1592  0.1196  0.1005
    1W        W37493   7.830   9.790   0.084  0.0842  0.1062 -0.1165
    1W        W37494   6.136  27.405   0.864 -0.0940  0.1805 -0.2001
    1W        W37495  29.350  16.955   0.811 -0.2273 -0.0817  0.0731
    1W        W37496  20.484   5.292   8.237  0.1178  0.2496 -0.0256
    1W        W37497   7.949  19.080   8.248  0.0267  0.1072 -0.3305
    1W        W37498  14.581   5.183   0.957 -0.0125 -0.0850 -0.0014
    1W        W37499   4.026  16.907   1.199 -0.3102  0.0711 -0.2808
    1W        W37500  28.402   5.710   1.426 -0.0837 -0.2485 -0.3553
    1W        W37501   5.413   8.206   7.046 -0.2097  0.0302  0.0740
    1W        W37502   4.365  22.658   2.424 -0.1498  0.0501 -0.0058
    1W        W37503  25.488  13.410   9.516  0.0754 -0.0840 -0.2409
    1W        W37504  23.732   7.639   8.817 -0.0780 -0.0546  0.1603
    1W        W37505   6.186  18.819   9.005  0.1743  0.1950  0.0077
    1W        W37506  14.106   0.386   0.706 -0.2752  0.1542  0.5013
    1W        W37507   3.415   0.108   1.515 -0.4092  0.1253 -0.0699
    1W        W37508  26.916   5.193   7.783 -0.1241  0.0845  0.0364
    1W        W37509  27.898  20.304   7.739  0.0669 -0.2018  0.0892
    1W        W37510  16.019  29.343   3.524 -0.3065  0.0074  0.1338
    1W        W37511  18.700  11.142   8.738  0.0361 -0.1201  0.2916
    1W        W37512   2.760  21.143   7.711 -0.0760 -0.0263  0.1756
    1W        W37513  16.367   7.280   9.293  0.1443  0.0195 -0.1775
    1W        W37514  23.649  25.755   7.640 -0.0002  0.1494 -0.0636
    1W        W37515   3.393  13.952   0.325  0.1936  0.0821  0.0130
    1W        W37516  17.743   5.757   3.396  0.0715  0.2346  0.0580
    1W        W37517  25.298  26.781   8.777  0.0861  0.2444  0.0811
    1W        W37518   0.101  19.826   8.759 -0.3244  0.1737  0.1664
    1W        W37519   5.404  18.693   6.448 -0.2449  0.0347  0.0027
    1W        W37520   6.560  22.096   8.768 -0.1861 -0.1037 -0.0846
    1W        W37521   0.169  10.628   9.345 -0.0061  0.0217  0.0242
    1W        W37522  18.109   5.591   8.010 -0.1291  0.1811 -0.1338
    1W        W37523   0.382   3.427   2.263 -0.1001 -0.1510  0.0818
    1W        W37524  20.838  23.502   0.015 -0.3814  0.1099 -0.3356
    1W        W37525  19.171   3.334   8.655  0.1008  0.0208 -0.0902
    1W        W37526  28.773   7.488   1.339 -0.0431  0.2050 -0.2754
    1W        W37527  11.056  10.904   0.825 -0.0157  0.2729 -0.0872
    1W        W37528  10.515  19.163   6.594  0.2370 -0.1271  0.0402
    1W        W37529  17.200  18.047   7.115  0.2183 -0.1402 -0.0480
    1W        W37530  10.336  24.566   2.151 -0.0259  0.0540  0.1410
    1W        W37531   7.120   9.674   7.643  0.1099 -0.0064 -0.2157
    1W        W37532  24.036   5.320   6.133  0.0129  0.0981  0.2382
    1W        W37533  21.561  28.331   7.184  0.0312 -0.0126  0.0621
    1W        W37534  22.244  20.261   8.387  0.1512  0.0028  0.2446
    1W        W37535  12.056   3.571   0.891 -0.1500  0.0536  0.2881
    1W        W37536   6.533  25.034   7.459 -0.1313 -0.3707 -0.1248
    1W        W37537  15.967  23.536   2.649  0.1689  0.1192 -0.0223
    1W        W37538  26.807  19.938   8.913 -0.0069 -0.1046 -0.0525
    1W        W37539  16.088   1.019   8.149 -0.0330 -0.0295 -0.1676
    1W        W37540  28.811   1.068   1.573  0.1291  0.0157  0.1445
    1W        W37541  25.415   0.404   0.289 -0.2100  0.0050 -0.1427
    1W        W37542  10.912   4.081   1.072 -0.1853  0.0237 -0.0095
    1W        W37543   6.883   8.381   7.306 -0.2213 -0.1532 -0.0982
    1W        W37544  16.752  22.329   2.598 -0.1366 -0.4449 -0.2332
    1W        W37545  12.800  14.857   0.710  0.3684 -0.0914 -0.0339
    1W        W37546  23.005  25.077   6.663  0.1497 -0.0933 -0.3157
    1W        W37547  11.386  23.517   0.127 -0.1672  0.3742  0.3392
    1W        W37548   3.760   5.685   6.355  0.2018 -0.0983  0.1707
    1W        W37549  15.711  26.078   7.333  0.1638  0.2653  0.0992
    1W        W37550  27.388  18.684   9.604 -0.1279 -0.4710 -0.0967
    1W        W37551   9.688   1.234   4.000  0.1965  0.1298  0.1662
    1W        W37552  20.732   3.052   6.743 -0.1458 -0.2146  0.0169
    1W        W37553  11.664  14.923   8.103  0.0156 -0.2689  0.4112
    1W        W37554   3.517  20.996   1.747  0.1851  0.2601  0.1617
    1W        W37555  22.544   8.287   7.880 -0.0126 -0.0488 -0.0167
    1W        W37556  12.911  10.043   2.193  0.0807  0.0356 -0.4531
    1W        W37557  21.218  10.235   1.230 -0.1718 -0.0062  0.3104
    1W        W37558  15.877  18.960   2.286 -0.0446  0.3483 -0.0746
    1W        W37559  13.804  23.989   2.438 -0.0783  0.2349 -0.0835
    1W        W37560  19.803  19.819   0.281 -0.0691 -0.0617 -0.2621
    1W        W37561   1.436  18.675   1.930 -0.4041 -0.1316  0.0145
    1W        W37562  13.125   8.953   0.751  0.3639  0.2689  0.0697
    1W        W37563  11.196   4.139   1.551 -0.1332 -0.1521  0.1662
    1W        W37564   8.163  19.792   0.511 -0.1448  0.1641 -0.1070
    1W        W37565  23.188  15.403   6.979  0.1000  0.2541 -0.2632
    1W        W37566   1.890  17.603   5.902  0.1051  0.3293  0.1644
    1W        W37567  10.970  14.476   0.030 -0.0260  0.0266  0.2106
    1W        W37568  28.486   7.764   9.091 -0.1997 -0.2388 -0.0135
    1W        W37569   6.019   7.126   0.982 -0.1691 -0.2721 -0.0015
    1W        W37570  15.107  26.630   7.699  0.0089  0.0790  0.1008
    1W        W37571  24.465   3.840   9.354 -0.1948  0.0874 -0.1777
    1W        W37572  14.162  15.105   2.175 -0.0565 -0.0746  0.0061
    1W        W37573  16.073  24.595   1.394 -0.0438 -0.0264 -0.0229
    1W        W37574  25.309   6.641   9.635  0.1151 -0.3642 -0.0002
    1W        W37575  20.953  22.934   1.764 -0.0329 -0.0543  0.2125
    1W        W37576   6.126  15.796   1.696  0.0162  0.2408 -0.0970
    1W        W37577  10.260  10.175   8.264 -0.1978 -0.1050  0.0940
    1W        W37578  12.319   9.395   8.103  0.1102  0.0047 -0.2769
    1W        W37579   0.613   4.579   8.934  0.0171  0.0942 -0.0759
    1W        W37580  12.586  24.413   9.667 -0.1977  0.0843  0.2777
    1W        W37581  23.134  11.631   6.419  0.0829 -0.1676  0.0508
    1W        W37582  27.474  17.583   9.647 -0.0270  0.1025 -0.3650
    1W        W37583   0.945   3.546   0.370 -0.0618  0.0595 -0.1181
    1W        W37584  13.930  23.405   8.705 -0.1418  0.0581  0.0331
    1W        W37585  14.071  16.084   9.536  0.2613 -0.2465  0.0194
    1W        W37586   2.889   7.455   8.409 -0.2010 -0.2656  0.2778
    1W        W37587  10.018  28.914   8.893  0.1349  0.2430  0.0457
    1W        W37588  18.124  24.712   8.272 -0.0546  0.0010 -0.1155
    1W        W37589   5.720  22.475   7.670  0.1029  0.1421  0.2427
    1W        W37590  21.998  18.824   2.108  0.4061  0.3298 -0.2426
    1W        W37591  11.326  25.745   0.167  0.3682  0.0693  0.1677
    1W        W37592   7.922  26.995   9.313 -0.2475 -0.0751 -0.0666
    1W        W37593  16.074   5.097   8.764  0.0395  0.1153 -0.0047
    1W        W37594   8.186   2.658   9.164  0.0686 -0.0460 -0.1500
    1W        W37595  12.464  12.005   7.636  0.0508 -0.4527  0.2338
    1W        W37596  28.407  19.817   0.165  0.1539  0.0943  0.1280
    1W        W37597  11.104   5.871   2.819  0.0110 -0.2160 -0.0142
    1W        W37598  27.752   7.250   1.761 -0.2363  0.8780  0.0105
    1W        W37599   1.853  17.097   0.628 -0.0004 -0.0455  0.0815
    1W        W37600   7.580  20.748   0.239  0.0260 -0.1017  0.0933
    1W        W37601   0.380  17.833   0.706  0.1847  0.1538 -0.2147
    1W        W37602   0.870   1.576   0.918 -0.1530 -0.0011  0.2707
    1W        W37603   1.590   0.921   7.821 -0.2252 -0.1591  0.1243
    1W        W37604  12.817  11.621   8.500 -0.2556 -0.0829 -0.1058
    1W        W37605  10.701  11.676   8.362 -0.2042 -0.1187 -0.1619
    1W        W37606   2.824   3.542   7.940  0.1189  0.3167  0.1541
    1W        W37607  13.217  27.972   1.852 -0.1090  0.0079  0.0115
    1W        W37608   8.494  24.554   7.600 -0.0750  0.2844  0.0501
    1W        W37609  26.239  14.491   1.650  0.1797 -0.2131  0.0994
    1W        W37610   5.980  27.763   0.515 -0.2840  0.3456 -0.1110
    1W        W37611  23.374   6.096   1.871  0.0844  0.0443  0.0078
    1W        W37612  23.247   5.945   3.081  0.0299 -0.0484 -0.4121
    1W        W37613  15.057  26.877   0.597  0.0361  0.0206  0.0747
    1W        W37614  25.426  17.732   2.351 -0.2913  0.0477 -0.0953
    1W        W37615   6.241  13.000   7.778  0.1910 -0.1342  0.2111
    1W        W37616  26.679   9.160   9.007  0.0603 -0.1378 -0.2308
    1W        W37617  25.859   1.545   6.661 -0.0642 -0.3618 -0.0501
    1W        W37618  21.567  12.194   6.854 -0.1526 -0.0835  0.0061
    1W        W37619   8.364  15.227   7.864  0.0160  0.1946 -0.1583
    1W        W37620   8.071  19.004   1.728  0.0667 -0.1783  0.3120
    1W        W37621  14.267  11.270   9.252  0.2433 -0.1247 -0.1774
    1W        W37622  12.771  12.804   2.848 -0.0360  0.1249  0.1073
    1W        W37623   2.862  14.963   7.996 -0.0511  0.3324 -0.2614
    1W        W37624   3.601  25.707   7.404  0.1682 -0.2452  0.0724
    1W        W37625   6.960   6.153   2.295  0.4396 -0.2797  0.0291
    1W        W37626   8.053  20.008   9.182  0.0199 -0.0300  0.0612
    1W        W37627  24.801  28.060   7.732  0.1039  0.0794 -0.0006
    1W        W37628   2.527  12.196   0.530 -0.0605  0.3220  0.1807
    1W        W37629  17.118   0.086   0.705  0.4056  0.1784  0.1806
    1W        W37630   4.540  27.124   2.436 -0.2920  0.0845 -0.0348
    1W        W37631  18.321  14.655   2.165 -0.1297  0.0487  0.0527
    1W        W37632  14.590   4.277   2.943  0.0559  0.1173 -0.3548
    1W        W37633   8.673  20.333   9.380  0.0538 -0.0651 -0.4095
    1W        W37634  18.280   5.309   8.417  0.4031 -0.0954  0.2825
    1W        W37635   6.922  21.868   8.354 -0.0181  0.0052  0.0833
    1W        W37636  24.325   1.957   7.984  0.0365 -0.2788  0.5096
    1W        W37637   8.252  25.095   8.309 -0.0291 -0.0331 -0.3005
    1W        W37638  12.359  12.711   6.987  0.3361 -0.0080 -0.0203
    1W        W37639   0.575   5.122   2.585 -0.2319  0.2371 -0.1277
    1W        W37640  14.022  28.404   3.417 -0.1026 -0.2072 -0.0315
    1W        W37641  25.040   3.349   7.860  0.1786  0.3209  0.2916
    1W        W37642  23.605  17.413   2.017 -0.0088 -0.2737 -0.0445
    1W        W37643  17.361   3.145   6.149 -0.2486 -0.0742 -0.2506
    1W        W37644  19.400   9.127   1.655  0.1578  0.1756  0.1231
    1W        W37645   2.193   1.190   3.445 -0.0781 -0.0497  0.1627
    1W        W37646   1.668  28.973   6.096 -0.1770  0.0622 -0.1190
    1W        W37647  28.453  28.724   0.493  0.0666 -0.0407  0.0787
    1W        W37648  14.807  14.845   6.819 -0.0365 -0.3002  0.0238
    1W        W37649   1.569  18.464   6.009 -0.2515  0.1298 -0.2095
    1W        W37650   8.209  25.820   1.180 -0.2265  0.1069  0.0767
    1W        W37651  17.246  11.944   0.615  0.3083 -0.1215 -0.1669
    1W        W37652  21.395  17.515   2.442  0.0593  0.0262  0.0411
    1W        W37653  21.478  28.372   8.369  0.1509 -0.1465 -0.0907
    1W        W37654   2.321   5.586   2.088  0.0025 -0.3139 -0.1878
    1W        W37655  19.182  20.683   2.498 -0.0378 -0.0372  0.0750
    1W        W37656  26.710  13.819   7.772 -0.2788  0.2257  0.2260
    1W        W37657  21.841   0.896   8.972 -0.0387 -0.0498  0.0828
    1W        W37658  17.246  14.810   0.756  0.1008  0.0635  0.2483
    1W        W37659  11.481  26.777   8.668 -0.0160  0.2986 -0.1458
    1W        W37660  11.334  23.740   9.291  0.0363 -0.0724  0.1107
    1W        W37661  11.644   4.995   7.712 -0.2940  0.1848  0.1483
    1W        W37662  13.528   6.836   1.262  0.0397  0.0234  0.2523
    1W        W37663   3.426  25.072   1.077 -0.0998  0.1474 -0.2550
    1W        W37664  13.064   1.920   2.800 -0.0779 -0.0941  0.1244
    1W        W37665   0.188  27.072   7.077 -0.2618 -0.1483 -0.1327
    1W        W37666   3.029  11.560   8.826 -0.0958 -0.0059 -0.1593
    1W        W37667   4.500  26.247   7.156  0.4154  0.1986  0.1868
    1W        W37668  26.424   9.950   2.077 -0.1424  0.1349 -0.1479
    1W        W37669  14.895   1.223   1.111 -0.1117 -0.0612  0.1083
    1W        W37670  11.623   7.736   8.130 -0.2380 -0.0018 -0.3983
    1W        W37671  25.710   2.835   7.240  0.2402  0.2536  0.4097
    1W        W37672  29.126  16.044   0.918  0.2637 -0.2328 -0.0890
    1W        W37673  25.364   5.760   5.676 -0.0173  0.1793 -0.1915
    1W        W37674   6.838  21.641   8.801  0.3110 -0.0820  0.0933
    1W        W37675  25.586   6.910   7.137  0.2534  0.0961  0.0888
    1W        W37676  10.427  14.513   0.171 -0.2397 -0.2319  0.0125
    1W        W37677  26.181  26.723   7.778  0.2599  0.5138  0.2136
    1W        W37678  29.311  25.637   1.492 -0.0374 -0.1681 -0.1488
    1W        W37679  26.119  23.576   8.683 -0.0906 -0.2421 -0.3086
    1W        W37680  12.674  23.178   0.256 -0.0938 -0.3875 -0.2946
    1W        W37681  20.767  25.273   7.072  0.0756  0.0294  0.2589
    1W        W37682  19.987  28.612   0.647  0.1292 -0.2502 -0.1831
    1W        W37683  20.723  17.080   1.504 -0.0535  0.1343 -0.1015
    1W        W37684   4.455  21.675   7.980  0.2556 -0.1261 -0.2373
    1W        W37685  22.131  12.958   9.268 -0.0445 -0.1823  0.1656
    1W        W37686  13.092  26.467   0.799  0.0779  0.0179 -0.2540
    1W        W37687   8.906  16.736   1.710 -0.1776 -0.0222  0.1093
    1W        W37688  20.970   5.290   0.364  0.1485 -0.1593  0.0275
    1W        W37689  21.357  12.673   8.221  0.1628 -0.1230 -0.0676
    1W        W37690  15.289   3.633   0.993  0.1403 -0.2424 -0.3286
    1W        W37691  22.270  11.704   7.461 -0.1991  0.3118 -0.0629
    1W        W37692  16.544   5.774   7.519  0.2923  0.0088  0.0897
    1W        W37693   3.088  20.775   7.814  0.2197  0.1539 -0.0537
    1W        W37694  18.635   5.101   7.453  0.1167  0.0350 -0.0356
    1W        W37695  15.783   0.632   1.822 -0.1080  0.1447  0.0067
    1W        W37696  10.619   6.970   6.893  0.2393 -0.0197  0.2058
    1W        W37697  22.930   7.259   1.063  0.1339  0.1722 -0.1556
    1W        W37698  14.809   3.560   2.065 -0.0503 -0.4437  0.3896
    1W        W37699  24.776  16.651   0.911  0.0958  0.1745 -0.1301
    1W        W37700  11.600   2.562   7.462 -0.2564  0.0990 -0.0984
    1W        W37701  24.357   0.774   2.068  0.3593 -0.1310  0.2201
    1W        W37702   0.270   3.220   9.094 -0.3501 -0.1217 -0.1143
    1W        W37703  13.712  18.894   1.912 -0.0483 -0.2033 -0.0849
    1W        W37704   2.026   8.092   1.481  0.0321  0.3201  0.3354
    1W        W37705  28.266  17.756   7.148 -0.0446 -0.2409  0.2852
    1W        W37706  13.161   8.348   8.271 -0.3136  0.2381  0.2096
    1W        W37707  29.215  13.731   7.868  0.2563 -0.1992  0.2695
    1W        W37708   2.403  16.992   1.358 -0.3161  0.4791 -0.3445
    1W        W37709  22.043   5.955   8.960 -0.1219 -0.2069 -0.0897
    1W        W37710  16.136   0.981   7.646  0.0480  0.0421 -0.0155
    1W        W37711   0.902   9.660   6.615 -0.1361  0.1033  0.1025
    1W        W37712  10.478   1.663   2.309  0.3187  0.0834  0.0743
    1W        W37713  21.089   5.039   7.131  0.3545  0.3236 -0.2557
    1W        W37714  25.769   1.277   1.190 -0.2162 -0.1253 -0.0492
    1W        W37715  22.747  11.544   7.425  0.4176 -0.1906 -0.1450
    1W        W37716  13.437   2.273   3.510 -0.0917  0.2642  0.1031
    1W        W37717  28.800   1.175   0.941  0.1712 -0.1107  0.0377
    1W        W37718  22.302  26.831   1.940  0.0257 -0.1214  0.0215
    1W        W37719  10.551  27.136   1.131  0.2464  0.0145 -0.1815
    1W        W37720  20.670  27.223   2.668 -0.0697 -0.1898 -0.0502
    1W        W37721   8.740  20.550   8.385 -0.1406 -0.0287  0.2586
    1W        W37722  12.592  18.672   8.417 -0.0594 -0.0966  0.2034
    1W        W37723  17.392  15.773   8.457  0.1288 -0.1779 -0.2970
    1W        W37724  11.528   8.892   9.688  0.0785 -0.0669  0.0015
    1W        W37725  17.419   1.412   9.424 -0.2571 -0.0234  0.0912
    1W        W37726  12.788  27.262   9.358  0.0676  0.0551 -0.0533
    1W        W37727   1.794   5.840   7.516  0.2158 -0.0662  0.1800
    1W        W37728   8.054  26.536   0.975 -0.1104  0.0856  0.1751
    1W        W37729   6.018  28.154   7.281  0.0440  0.0639 -0.0022
    1W        W37730   7.515  22.957   0.052 -0.0487 -0.1029  0.1313
    1W        W37731  21.618   8.419   2.210 -0.1407 -0.1949  0.0039
    1W        W37732  14.359  23.063   6.703  0.1902  0.0021  0.0231
    1W        W37733   7.431   6.242   3.646 -0.2919 -0.0197  0.1047
    1W        W37734  18.290  23.349   7.728 -0.0792  0.0888  0.0662
    1W        W37735  27.646   3.341   7.568  0.0439  0.0637  0.1934
    1W        W37736  13.806  22.259   8.118 -0.1392 -0.5917 -0.2101
    1W        W37737  18.248   0.353   2.612  0.1517  0.2410 -0.1685
    1W        W37738   0.359  27.391   8.203  0.2210 -0.0556  0.1004
    1W        W37739   0.887   9.452   0.803  0.0150 -0.1487 -0.0504
    1W        W37740  21.969  14.763   7.221  0.5061  0.0583  0.1737
    1W        W37741  25.588  21.582   1.193 -0.2883  0.0509 -0.0529
    1W        W37742  12.502  13.965   9.335 -0.1518  0.1352 -0.1481
    1W        W37743  10.917   5.317   2.001  0.0485  0.2507 -0.0114
    1W        W37744  26.740  16.230   7.354  0.0702  0.1210 -0.2542
    1W        W37745   1.038  13.004   8.714 -0.2147  0.3735  0.0282
    1W        W37746  24.826  27.079   2.591 -0.2492  0.3331  0.1060
    1W        W37747   3.818   8.206   9.074  0.2502  0.1384 -0.3547
    1W        W37748  21.751  22.284   1.546 -0.4271  0.3200  0.1064
    1W        W37749  21.348   1.198   7.279  0.3034  0.1646  0.0807
    1W        W37750   0.751   5.915   8.807 -0.0297 -0.0195 -0.0917
    1W        W37751   4.353  27.142   0.481 -0.2394 -0.3995  0.0332
    1W        W37752   1.882  25.411   2.665  0.1439  0.0596  0.0284
    1W        W37753  19.299   1.672   7.260  0.0786 -0.0504 -0.1406
    1W        W37754  10.448  26.019   0.072 -0.0492  0.0210  0.2546
    1W        W37755   6.895   0.882   7.358 -0.1346  0.2982  0.0566
    1W        W37756  10.326  10.558   0.597  0.0906  0.1194  0.0534
    1W        W37757  26.785  16.523   8.204 -0.1162  0.1145  0.0393
    1W        W37758  25.188  23.346   7.637 -0.0169  0.3131 -0.0656
    1W        W37759   5.766   9.009   0.026 -0.2208  0.2719 -0.0995
    1W        W37760   8.291  18.735   6.651  0.1132 -0.2471  0.1725
    1W        W37761   9.406  29.172   7.799 -0.0624 -0.0078  0.1706
    1W        W37762   5.547  23.833   2.272 -0.0471  0.0771 -0.0376
    1W        W37763  16.576  11.297   8.916 -0.1046 -0.2036  0.0813
    1W        W37764  13.330   7.616   0.996  0.0100 -0.1557  0.1563
    1W        W37765  16.797   9.326   0.205 -0.0814 -0.0870 -0.0987
    1W        W37766  19.050  23.277   2.587 -0.3746 -0.1803  0.0014
    1W        W37767  20.566  14.380   1.009  0.3832 -0.0271  0.3140
    1W        W37768  13.724  23.190   9.313  0.0198  0.1155  0.1266
    1W        W37769  12.590   3.321   8.134 -0.0013 -0.0876 -0.0433
    1W        W37770   3.543  17.143   8.643  0.2589 -0.1660  0.0674
    1W        W37771  18.999   9.059   0.350 -0.4678 -0.0854 -0.0092
    1W        W37772  28.840  21.644   7.494 -0.3840 -0.0520 -0.0112
    1W        W37773  17.312  20.370   0.447 -0.2183 -0.0560  0.2862
    1W        W37774  10.985  19.237   0.362  0.2127  0.0891 -0.3452
    1W        W37775  25.951  22.765   8.066  0.3960 -0.0357 -0.0811
    1W        W37776   5.159  27.893   8.348 -0.0156  0.1320 -0.2916
    1W        W37777   4.769  15.922   8.658 -0.1096 -0.0020 -0.1645
    1W        W37778   6.364  22.444   9.066 -0.0721 -0.0949  0.0839
    1W        W37779  22.531  11.014   1.951 -0.1110  0.0765 -0.1245
    1W        W37780   2.277  15.178   1.773 -0.0255 -0.0290  0.0103
    1W        W37781  12.877   0.456   9.675  0.0883 -0.3785  0.2101
    1W        W37782  11.423  20.218   9.030  0.0177 -0.1365 -0.2428
    1W        W37783  16.917  21.556   2.953 -0.0835  0.0310  0.0978
    1W        W37784   3.698  19.554   6.458 -0.4616  0.1988  0.1215
    1W        W37785  12.916  14.480   7.501 -0.2019 -0.1878 -0.0025
    1W        W37786   3.915  15.723   5.795  0.0921 -0.0667  0.2698
    1W        W37787   2.336   6.703   0.410 -0.0208 -0.1133 -0.1017
    1W        W37788  25.459   5.683   8.826  0.1113 -0.0871 -0.1114
    1W        W37789  12.152  24.403   1.526  0.3158 -0.5765 -0.1797
    1W        W37790  17.079   0.908   8.613  0.1375  0.0383  0.0353
    1W        W37791   7.166  27.896   6.838  0.0028 -0.3329  0.3664
    1W        W37792  11.846  27.969   9.682  0.4866  0.1634  0.1460
    1W        W37793  19.182   2.943   8.263 -0.3070 -0.1912 -0.0187
    1W        W37794   2.178   5.137   8.114  0.0393  0.1263  0.0263
    1W        W37795  19.577  28.377   2.234 -0.1396 -0.3337 -0.0469
    1W        W37796   9.983  19.852   7.439  0.0928  0.0118 -0.2080
    1W        W37797   8.231  26.313   2.985  0.3207 -0.0080 -0.1327
    1W        W37798  19.086   8.129   8.688 -0.0515  0.0217 -0.0086
    1W        W37799  28.655  22.385   7.965 -0.4248  0.1207  0.2388
    1W        W37800  22.237  18.562   0.491  0.1165 -0.0054 -0.0968
    1W        W37801   2.399  19.242   9.156 -0.0051  0.1198  0.1030
    1W        W37802  23.262  23.318   0.980  0.0012  0.1338 -0.2724
    1W        W37803   1.894  18.555   2.036 -0.1483 -0.1027  0.1784
    1W        W37804  26.219  16.403   7.210 -0.1351 -0.2761 -0.0515
    1W        W37805  23.323   3.330   1.474 -0.1316  0.1600 -0.0343
    1W        W37806  28.224   4.516   6.175 -0.1689  0.2472  0.0661
    1W        W37807  11.847  14.463   9.136  0.0869  0.2126 -0.4098
    1W        W37808   4.101   4.608   1.690 -0.0633 -0.2920  0.0952
    1W        W37809  12.830   0.602   1.519  0.1132  0.1515  0.0745
    1W        W37810  23.714   6.744   8.673 -0.0326  0.1991  0.0550
    1W        W37811  14.071  14.779   2.577 -0.3642  0.1577  0.0504
    1W        W37812  14.417   5.484   2.840 -0.2047 -0.0803 -0.0593
    1W        W37813   5.652  24.329   1.139  0.1768  0.1751 -0.2598
    1W        W37814  22.649  23.920   9.271 -0.0926 -0.1671  0.0572
    1W        W37815  19.463   8.546   1.439 -0.0710  0.0598 -0.1132
    1W        W37816   0.244   4.347   6.810  0.0958 -0.1042 -0.0100
    1W        W37817  13.502  13.419   8.083 -0.1334 -0.1994  0.0173
    1W        W37818   2.708  17.604   0.424  0.0465 -0.1637  0.0587
    1W        W37819  23.297  23.793   0.818 -0.1509  0.2676  0.0326
    1W        W37820  12.248   4.934   3.320 -0.2312  0.0904  0.2251
    1W        W37821  10.556  20.958   5.798 -0.1218  0.0947 -0.1457
    1W        W37822  10.870   6.703   7.752 -0.0037  0.1076 -0.2995
    1W        W37823   1.495  23.308   1.170  0.1276 -0.1183  0.0202
    1W        W37824  18.792   9.527   0.499  0.0057 -0.3951 -0.1091
    1W        W37825  26.456   2.352   6.276 -0.4242  0.1048 -0.2392
    1W        W37826  11.455   5.278   7.300  0.0986 -0.1808 -0.1445
    1W        W37827   0.564  14.617   9.216 -0.0293  0.0739  0.1855
    1W        W37828  17.799  20.702   9.098 -0.0096 -0.1861  0.0442
    1W        W37829  13.270  10.700   1.835 -0.0484  0.1456  0.0882
    1W        W37830  16.560   9.334   7.824 -0.2865  0.0823 -0.1698
    1W        W37831   8.247   7.692   9.425  0.2158  0.0052  0.1026
    1W        W37832  20.100  19.058   2.502 -0.0947  0.0636  0.1412
    1W        W37833   0.862  21.400   6.403  0.1890  0.0019 -0.2197
    1W        W37834   2.193   4.083   7.250  0.1508 -0.4115 -0.1105
    1W        W37835   4.674  28.763   2.371 -0.4702  0.3244  0.2489
    1W        W37836  12.358  21.964   8.185  0.0526 -0.1965 -0.1347
    1W        W37837   1.441   9.210   9.681 -0.2507 -0.5191  0.0555
    1W        W37838  21.276   3.860   1.070  0.1171 -0.1407 -0.0290
    1W        W37839  28.452  22.281   2.898 -0.1846 -0.0675 -0.2319
    1W        W37840   1.481  21.591   0.001  0.0072 -0.0540  0.0151
    1W        W37841  28.000   2.845   1.812  0.2121  0.3139 -0.2433
    1W        W37842  24.140  24.669   2.500  0.2012  0.2754 -0.1587
    1W        W37843  22.816  28.082   3.260 -0.0784  0.1012 -0.0691
    1W        W37844   4.610  29.131   7.747  0.0266 -0.0690 -0.2937
    1W        W37845  13.527  22.194   7.670 -0.1703 -0.0564 -0.1364
    1W        W37846  25.743  12.144   0.230  0.2824  0.0697 -0.0087
    1W        W37847  13.331   0.427   0.294 -0.0291  0.2185 -0.0613
    1W        W37848   0.219  28.009   1.441 -0.0397  0.1388 -0.0133
    1W        W37849  21.861   6.755   9.483  0.1482 -0.0406 -0.2066
    1W        W37850  27.760  15.991   6.642 -0.0007 -0.0346  0.2105
    1W        W37851  28.299  20.129   0.757  0.1381  0.2846  0.0954
    1W        W37852   3.139  28.677   1.188  0.1136  0.0610  0.0178
    1W        W37853   7.435   0.336   1.974  0.0866 -0.2050 -0.0180
    1W        W37854  15.804  15.332   8.191 -0.1954  0.2149 -0.1002
    1W        W37855  26.252  14.005   1.998 -0.1782 -0.1484  0.0261
    1W        W37856   5.482  28.462   6.661 -0.1042 -0.2379  0.2221
    1W        W37857  28.132  17.042   9.563  0.3004  0.1469 -0.1867
    1W        W37858  26.053   2.208   2.388  0.0365  0.0968  0.2368
    1W        W37859   0.264  13.377   9.102  0.2645  0.2465  0.0388
    1W        W37860  16.957   7.805   8.028  0.0965 -0.0720 -0.1449
    1W        W37861  15.058  22.185   0.098 -0.0447  0.2061 -0.1511
    1W        W37862  22.779   8.683   2.385  0.1301 -0.0245 -0.0318
    1W        W37863  27.255  19.809   0.658  0.4646 -0.1488 -0.2787
    1W        W37864  13.049  20.687   1.108  0.2601 -0.0935 -0.2334
    1W        W37865  21.383  20.360   6.446 -0.1814 -0.1689 -0.2371
    1W        W37866   6.430   4.259   1.102 -0.0071 -0.1339  0.2104
    1W        W37867  24.878   1.061   0.934  0.0030 -0.0736  0.3210
    1W        W37868  11.516  15.093   0.217 -0.0812  0.0911  0.1252
    1W        W37869  26.887  19.646   0.216 -0.2206  0.2078  0.2776
    1W        W37870  27.666  14.426   0.261  0.3929 -0.1497 -0.1790
    1W        W37871   3.927   4.071   7.630 -0.0362  0.0547 -0.2739
    1W        W37872  19.350   6.693   8.642 -0.3098 -0.1277 -0.1938
    1W        W37873  18.211   2.309   2.079  0.2474  0.1201  0.3656
    1W        W37874   8.178  13.308   7.512  0.1545 -0.0153  0.0574
    1W        W37875   2.602   9.765   0.267 -0.0020  0.0869 -0.3205
    1W        W37876  15.860  13.422   1.303  0.4448 -0.3151  0.1278
    1W        W37877   0.554  14.814   6.442 -0.0944 -0.0096  0.0687
    1W        W37878  25.607  15.420   7.580  0.1281  0.0599  0.0516
    1W        W37879   1.222   6.178   9.309 -0.0665 -0.4338  0.2490
    1W        W37880  25.235  17.574   9.173 -0.0988  0.4330 -0.0473
    1W        W37881  18.012  23.547   3.126  0.1099 -0.1034 -0.3359
    1W        W37882  15.092   6.122   0.695 -0.0235 -0.0222 -0.1743
    1W        W37883  10.279  21.631   1.456  0.2333  0.0172 -0.4209
    1W        W37884  22.995  15.199   7.782  0.2622  0.3237  0.3815
    1W        W37885  20.083  28.568   8.685 -0.0096 -0.1474  0.1226
    1W        W37886   7.123  20.185   8.412 -0.2441 -0.0352  0.1322
    1W        W37887  20.293   3.735   9.684 -0.2407  0.0242 -0.1634
    1W        W37888  23.615  19.084   2.402 -0.0397  0.0392  0.0361
    1W        W37889  18.868  11.839   3.203 -0.0286  0.0654 -0.1100
    1W        W37890   2.896   4.149   7.032 -0.0778  0.0791  0.0489
    1W        W37891   7.971   1.814   1.795  0.0732 -0.0007  0.0234
    1W        W37892   7.398  25.590   2.661  0.1773 -0.0430 -0.0242
    1W        W37893   9.852  14.249   1.925  0.1540 -0.0746  0.0517
    1W        W37894   5.043  17.503   0.946 -0.3329 -0.3049  0.0704
    1W        W37895  15.184   7.420   3.639 -0.1369  0.2371 -0.1504
    1W        W37896  15.428   2.910   0.145 -0.0088  0.2094  0.0556
    1W        W37897   0.220  14.563   7.811 -0.1159 -0.0235  0.0813
    1W        W37898   2.502  15.390   9.584  0.3677  0.1797  0.1619
    1W        W37899  24.560  17.703   0.936  0.1942 -0.3041 -0.1579
    1W        W37900   8.132  22.579   1.250 -0.0071 -0.1751  0.3733
    1W        W37901  11.515   1.168   8.191 -0.1396 -0.2389 -0.0570
    1W        W37902   5.096  16.258   0.194 -0.0746 -0.0198  0.3377
    1W        W37903  24.412   9.057   8.019 -0.3515  0.1559 -0.0004
    1W        W37904   6.350  22.172   8.263 -0.1882 -0.0550 -0.1460
    1W        W37905  20.042   9.719   8.766  0.2719  0.0256 -0.2006
    1W        W37906   1.343  17.112   6.086  0.0162 -0.0832 -0.1859
    1W        W37907  10.997  17.900   9.255 -0.0729  0.0016  0.0253
    1W        W37908   6.744  25.967   7.655 -0.2873  0.1426  0.3282
    1W        W37909   2.584   3.026   9.287 -0.0168  0.0129  0.1593
    1W        W37910   7.529  24.282   1.643  0.2393 -0.2536 -0.1086
    1W        W37911   8.891   2.443   8.797  0.1863 -0.0807 -0.4803
    1W        W37912   5.092  22.600   8.924 -0.0192  0.2319 -0.1540
    1W        W37913  18.942   3.808   9.210  0.3375 -0.2649  0.0296
    1W        W37914  13.629   4.908   8.127  0.0889  0.2863 -0.0291
    1W        W37915  26.176  15.490   9.583  0.1824  0.0640 -0.1169
    1W        W37916  15.205  26.001   0.212  0.2738 -0.1821  0.0621
    1W        W37917  10.441  23.935   7.029  0.1588 -0.1368  0.1266
    1W        W37918   2.784  28.183   7.403  0.2013 -0.0162  0.1177
    1W        W37919  11.511  12.208   2.392 -0.1504  0.1547 -0.0867
    1W        W37920  18.400  24.345   2.666 -0.2169  0.0839  0.1179
    1W        W37921   1.841   6.146   8.716 -0.0002  0.0046 -0.0001
    1W        W37922   5.380   9.186   1.711  0.0999  0.0923 -0.0547
    1W        W37923  19.030  27.276   2.866  0.1032 -0.0105  0.0665
    1W        W37924  25.762  23.078   8.435 -0.7499  0.0357 -0.0733
    1W        W37925   1.830  19.087   6.735 -0.2282  0.0914 -0.1147
    1W        W37926   1.078  15.119   7.882  0.0236  0.2104 -0.0045
    1W        W37927  13.369  21.475   0.678  0.0563 -0.1739  0.1694
    1W        W37928   1.701  24.418   0.779  0.1305  0.1348  0.2487
    1W        W37929  16.918  26.848   1.039 -0.1684  0.1137 -0.2207
    1W        W37930  22.163  24.369   6.472 -0.3051 -0.2248 -0.0270
    1W        W37931  11.626  21.603   6.653 -0.1091  0.2470 -0.1309
    1W        W37932  17.508   4.119   8.414 -0.1714  0.1798 -0.0684
    1W        W37933  21.896  17.693   0.927  0.0568 -0.0589 -0.0727
    1W        W37934  16.098  14.535   0.117 -0.1096 -0.1453 -0.0460
    1W        W37935  29.253  13.924   0.017 -0.3065 -0.1443  0.0501
    1W        W37936   1.586  10.152   7.882  0.2070  0.3387  0.0720
    1W        W37937  18.802  11.746   7.865  0.2827  0.3179  0.0574
    1W        W37938   7.542  15.742   2.132 -0.0657  0.0766  0.1133
    1W        W37939  16.260  23.294   7.604 -0.1279  0.2609  0.0249
    1W        W37940   9.942   0.355   8.518  0.0724  0.0682  0.2054
    1W        W37941   9.785  12.288   1.215 -0.1624 -0.2225 -0.0601
    1W        W37942   7.478   5.655   1.479  0.0363  0.0365 -0.3364
    1W        W37943  17.347  27.474   2.625  0.1426 -0.0919 -0.0186
    1W        W37944  23.113   8.431   8.529  0.0775  0.0205  0.3020
    1W        W37945   7.862  13.008   2.757 -0.1808 -0.0076  0.0206
    1W        W37946  17.312   9.238   0.212 -0.0743 -0.3953  0.0658
    1W        W37947  16.109   3.347   7.539 -0.1074  0.0068 -0.0441
    1W        W37948  11.339  25.302   0.439  0.2609  0.1484 -0.0920
    1W        W37949  23.727  29.194   7.511 -0.0076  0.3737 -0.1461
    1W        W37950   7.213  21.887   1.339  0.0436 -0.1215 -0.1641
    1W        W37951  28.052  22.504   8.278 -0.1200 -0.1658  0.2384
    1W        W37952  25.400   8.853   2.040  0.3716  0.0509 -0.2897
    1W        W37953   8.766  18.650   1.291  0.1257  0.0750 -0.0279
    1W        W37954  14.406  24.724   7.911 -0.0437 -0.2260  0.2025
    1W        W37955  29.323  28.837   7.180  0.2254  0.1771  0.0709
    1W        W37956   3.554  19.804   1.449 -0.0137 -0.0360 -0.0188
    1W        W37957  17.880   7.269   2.787  0.2074 -0.0787 -0.2168
    1W        W37958  14.515  22.854   3.418  0.5100 -0.2343 -0.3950
    1W        W37959   2.266  19.879   6.049 -0.1081 -0.0327 -0.0484
    1W        W37960  27.557  10.159   1.753  0.1970 -0.1980  0.1863
    1W        W37961  23.229   2.735   2.724  0.0824  0.1596 -0.1794
    1W        W37962  23.778   9.231   1.660  0.0787 -0.0804  0.2675
    1W        W37963  25.761   5.614   2.536  0.1176  0.0997  0.1539
    1W        W37964  14.199  12.133   0.372  0.1775  0.0292  0.1180
    1W        W37965  27.092  12.376   0.476 -0.1658 -0.0368  0.2310
    1W        W37966  24.555  19.127   9.679 -0.0192  0.1027  0.1021
    1W        W37967  24.788  20.976   7.284  0.2077  0.0679 -0.2704
    1W        W37968   8.197   1.545   8.582 -0.2423 -0.1566 -0.0948
    1W        W37969  18.187  23.882   2.779  0.0774 -0.0768 -0.1502
    1W        W37970   2.328  25.401   7.875  0.2894 -0.1606 -0.1340
    1W        W37971   0.321   4.717   2.451 -0.1347  0.0171  0.2135
    1W        W37972   9.046  29.099   2.901  0.1854  0.1011 -0.5713
    1W        W37973  11.998   2.754   0.339 -0.2169 -0.1728  0.1327
    1W        W37974   8.249   0.839   6.975  0.1057  0.0568  0.0879
    1W        W37975  22.120   8.993   8.191  0.1362 -0.0511 -0.5926
    1W        W37976  10.015  24.075   9.647 -0.0154  0.0757  0.1229
    1W        W37977   0.745   1.179   0.412 -0.1007 -0.2142 -0.0189
    1W        W37978  15.480  22.771   8.022  0.2029  0.0220 -0.0968
    1W        W37979   1.175  14.484   0.404 -0.0283  0.1451  0.1496
    1W        W37980  23.450   4.391   8.763 -0.2491  0.1427 -0.1954
    1W        W37981   9.248   9.577   2.203 -0.2557  0.3026 -0.0890
    1W        W37982  10.835   9.655   0.920 -0.2856  0.2351 -0.0159
    1W        W37983   4.286  29.128   2.529  0.4003 -0.2097 -0.0053
    1W        W37984  28.163  18.119   6.663  0.1425 -0.0279  0.1531
    1W        W37985   1.296  22.708   1.948 -0.0625 -0.0397 -0.0037
    1W        W37986  27.279   6.517   2.606 -0.1054  0.1627  0.2443
    1W        W37987  14.190  22.097   7.786 -0.3102  0.1090  0.2408
    1W        W37988  25.156   2.809   6.284 -0.0085  0.0270  0.1241
    1W        W37989   7.932  17.654   7.681 -0.3624  0.1547  0.0287
    1W        W37990  26.595   7.052   6.570  0.0705  0.0055 -0.0751
    1W        W37991  12.079  10.497   7.332 -0.0199 -0.0816  0.3946
    1W        W37992  18.287  17.503   2.486  0.2123 -0.3123 -0.0967
    1W        W37993  18.929  21.163   0.105  0.0362 -0.0241 -0.0246
    1W        W37994  11.667  21.666   1.311 -0.0286  0.2399  0.0856
    1W        W37995   8.614  15.055   1.277  0.2969 -0.1826 -0.0871
    1W        W37996  19.733  16.526   7.491 -0.0426  0.2022  0.0140
    1W        W37997   7.685  21.090   7.475  0.0026 -0.0481  0.0166
    1W        W37998  23.519  26.133   1.702 -0.1787 -0.2797  0.1352
    1W        W37999  15.527  20.865   2.835 -0.1641  0.2453 -0.1254
    1W        W38000  22.690   3.936   9.021 -0.1883  0.2505  0.0520
    1W        W38001  23.524  26.604   1.533  0.1541  0.0932  0.2922
    1W        W38002  28.170  10.826   8.513 -0.2292 -0.1228  0.0445
    1W        W38003  10.875  13.951   1.183 -0.1753  0.0682  0.0935
    1W        W38004   3.692   3.400   1.060 -0.1046  0.0532  0.0776
    1W        W38005  27.087  11.431   1.885  0.0319  0.1267 -0.1522
    1W        W38006   2.844   1.488   7.001  0.1737 -0.1364  0.2135
    1W        W38007  23.677  20.580   2.246 -0.1486 -0.0428  0.3450
    1W        W38008   1.632  19.762   9.108 -0.3511  0.0139  0.0343
    1W        W38009  22.463   5.029   8.535  0.1000 -0.0247 -0.0096
    1W        W38010  20.121  20.048   2.457 -0.2776 -0.1354  0.0563
    1W        W38011  18.123  10.160   1.750  0.0521 -0.0342 -0.1362
    1W        W38012  26.208  15.685   1.812  0.0795  0.2428 -0.1628
    1W        W38013   0.740   3.449   9.080 -0.2306  0.0059 -0.0570
    1W        W38014  18.020  25.604   0.679  0.1026 -0.3091 -0.0120
    1W        W38015  15.660  19.638   7.106 -0.2453 -0.2166 -0.3746
    1W        W38016  19.005   3.374   0.551  0.3463 -0.1622  0.2937
    1W        W38017   1.630  20.485   1.844  0.1200 -0.0988  0.1969
    1W        W38018   2.111   0.085   7.348 -0.1764  0.1856  0.1071
    1W        W38019  23.351   6.401   7.134 -0.0029 -0.1494  0.0411
    1W        W38020  23.898  17.070   9.577  0.0949  0.0219  0.0787
    1W        W38021  12.526   9.453   8.864  0.1289  0.0800 -0.1825
    1W        W38022  25.932  10.900   7.389  0.2175  0.0901 -0.3202
    1W        W38023  16.195  17.584   8.545 -0.1208  0.0104  0.0376
    1W        W38024   0.779   3.501   6.986  0.0873 -0.2741 -0.1663
    1W        W38025  14.507   0.377   2.209  0.0749 -0.0425  0.1435
    1W        W38026   0.030  17.129   2.347 -0.3803  0.3107 -0.2602
    1W        W38027  19.778  12.641   8.040 -0.1998  0.2993 -0.0690
    1W        W38028   7.168  11.081   8.344  0.0488 -0.2376 -0.0027
    1W        W38029  20.849  11.000   3.060  0.0823 -0.2196 -0.1563
    1W        W38030   1.684   0.236   7.035 -0.2259  0.0417  0.1956
    1W        W38031   2.460  15.952   8.362  0.1142 -0.1618  0.0060
    1W        W38032  27.737  24.214   1.652  0.1200 -0.1201  0.1606
    1W        W38033  19.884   9.299   1.700  0.2880 -0.0752  0.0161
    1W        W38034  19.878  28.818   2.327 -0.1400  0.1309  0.0719
    1W        W38035   9.283  10.240   2.858  0.0971  0.2456 -0.1502
    1W        W38036  28.076  16.199   9.584  0.6484  0.2528 -0.3117
    1W        W38037   5.794  16.243   7.568 -0.2769 -0.1323  0.1475
    1W        W38038   8.276  28.246   1.903  0.1688 -0.1333 -0.0166
    1W        W38039  23.879   1.499   0.477 -0.1096 -0.2743 -0.0511
    1W        W38040   9.828  19.359   1.753 -0.1335  0.0926 -0.1697
    1W        W38041   0.322  20.060   1.469  0.2654 -0.0598 -0.1109
    1W        W38042   8.587  27.447   1.983 -0.1724  0.2019 -0.0611
    1W        W38043  26.627  22.299   9.307 -0.0775  0.0447 -0.0920
    1W        W38044   9.344   6.389   9.298  0.0245 -0.0081  0.0777
    1W        W38045  19.300  23.903   0.952  0.2425 -0.3706  0.1835
    1W        W38046  11.522  17.049   8.502 -0.1440 -0.0161  0.2160
    1W        W38047   0.558  14.037   0.738 -0.1106  0.0432 -0.1495
    1W        W38048   0.188  11.904   6.952  0.1257  0.0376 -0.0120
    1W        W38049  15.373  16.631   8.016  0.1583 -0.0053  0.0530
    1W        W38050   5.167  23.615   0.782  0.0478 -0.0520 -0.1550
    1W        W38051  21.252  26.883   9.405 -0.0152  0.3000 -0.0463
    1W        W38052   3.057   8.298   6.824  0.0644  0.1746  0.0557
    1W        W38053   7.626  22.831   1.215 -0.0537  0.1087 -0.0457
    1W        W38054  21.194  23.999   2.612 -0.0011 -0.2051  0.1835
    1W        W38055  28.592  16.485   8.904 -0.0109 -0.0566 -0.1062
    1W        W38056   1.161  16.500   1.328 -0.0043 -0.0418  0.2278
    1W        W38057  24.489   5.057   1.279  0.0611 -0.0487 -0.2940
    1W        W38058  27.425   3.571   0.944 -0.1588  0.0430 -0.0726
    1W        W38059   7.459   3.565   9.626 -0.2480  0.0805 -0.1158
    1W        W38060  28.053  18.239   0.443  0.0841  0.6174 -0.1928
    1W        W38061  17.509  21.611   1.164 -0.0480 -0.0078  0.1163
    1W        W38062  17.420  16.963   8.282 -0.1215 -0.0848 -0.1403
    1W        W38063   9.002  12.668   8.460  0.1336 -0.0640  0.2841
    1W        W38064  12.139  11.892   2.026 -0.2044 -0.1570 -0.3164
    1W        W38065  28.750  21.676   0.101 -0.1179 -0.0007  0.0422
    1W        W38066   0.264   0.744   0.302  0.1936 -0.1733  0.2664
    1W        W38067  15.091  21.793   1.797 -0.2359 -0.2149  0.1698
    1W        W38068  24.297  21.331   7.340  0.2047  0.1485  0.0847
    1W        W38069   0.201   0.166   8.220 -0.1462 -0.1318  0.1208
    1W        W38070  12.547  11.730   7.078 -0.0493  0.3137  0.2768
    1W        W38071  16.694   4.685   2.358 -0.1121  0.0229 -0.0086
    1W        W38072  22.270  18.007   1.719 -0.2149  0.3082  0.2819
    1W        W38073   9.410  13.990   0.386 -0.0562 -0.0804  0.2410
    1W        W38074  13.101   9.054   1.429  0.1376  0.2173 -0.2125
    1W        W38075  13.007  21.298   2.310 -0.2343  0.0378  0.0805
    1W        W38076  29.111  28.489   8.415  0.1314  0.1169  0.2517
    1W        W38077  11.493   1.308   3.478 -0.1924  0.4243 -0.1115
    1W        W38078  24.044  17.971   2.455  0.0877  0.2237 -0.1438
    1W        W38079   0.455  16.245   0.298 -0.2568  0.2385 -0.0509
    1W        W38080  21.905   0.852   8.490  0.4069  0.0484  0.1890
    1W        W38081  16.200  22.817   6.844 -0.2308  0.1862  0.1786
    1W        W38082  17.844  14.597   6.995 -0.0536 -0.2741 -0.2113
    1W        W38083  23.761   8.796   2.287  0.2348  0.0974  0.0105
    1W        W38084  26.116   7.234   1.788 -0.1125  0.0061 -0.3164
    1W        W38085  13.416  24.020   1.153 -0.0681  0.0610 -0.2785
    1W        W38086  10.935   3.880   2.427 -0.5613  0.1473  0.1167
    1W        W38087  13.952   5.423   2.660  0.0926 -0.2642  0.1139
    1W        W38088   6.355  15.007   1.573  0.1160  0.1884 -0.0290
    1W        W38089   0.357   5.595   1.871  0.1451  0.0632 -0.0666
    1W        W38090  28.776   9.959   6.974  0.1096 -0.0512  0.2239
    1W        W38091   0.086  13.623   7.401 -0.1365  0.0866  0.0848
    1W        W38092  18.204   4.190   7.750 -0.1840  0.1238 -0.2483
    1W        W38093  24.214   4.918   0.414  0.0153 -0.2210  0.1686
    1W        W38094  11.468  21.644   8.532 -0.2831  0.0295 -0.0135
    1W        W38095  25.591  10.921   7.932 -0.0514 -0.0012  0.0175
    1W        W38096  18.404   6.677   8.388 -0.0469 -0.1952 -0.1289
    1W        W38097   9.089  27.620   3.134 -0.2437 -0.0569  0.1690
    1W        W38098   1.631  20.750   8.498  0.1224 -0.0481 -0.1184
    1W        W38099  12.208   9.849   0.355  0.2533  0.0449 -0.0677
    1W        W38100  11.533  17.673   7.815  0.0098 -0.4809  0.1273
    1W        W38101  26.587  18.507   7.559 -0.0955  0.2162  0.1781
    1W        W38102   2.335  26.329   7.626 -0.1802 -0.0060  0.0085
    1W        W38103  10.848  15.200   0.638  0.1569 -0.0647  0.1288
    1W        W38104  14.204  10.951   8.691 -0.0179 -0.0110  0.0023
    1W        W38105  21.514  28.831   7.381 -0.1440 -0.1575 -0.2505
    1W        W38106   6.714  11.006   9.133  0.2716 -0.1128  0.2074
    1W        W38107  18.266  27.014   9.072 -0.0848  0.0715  0.2239
    1W        W38108   6.753  18.587   2.333  0.2313  0.1518  0.0380
    1W        W38109  25.052   0.720   7.822  0.0096 -0.0380  0.1225
    1W        W38110  24.587  19.836   7.076 -0.2356 -0.0254 -0.1111
    1W        W38111   4.232  18.526   1.567 -0.0806  0.0150 -0.1533
    1W        W38112   0.627  28.404   2.434  0.2166 -0.2738 -0.1423
    1W        W38113  14.560  25.036   7.519  0.2095  0.2384 -0.1475
    1W        W38114  24.352  19.426   6.687 -0.1177 -0.0179 -0.2153
    1W        W38115   5.638  18.647   7.136  0.0720 -0.3509 -0.2547
    1W        W38116   1.399  26.036   0.137 -0.2973 -0.0300  0.1249
    1W        W38117  29.304  29.152   6.818 -0.1464 -0.0193  0.1369
    1W        W38118   1.702  10.034   8.394 -0.0171 -0.0948 -0.2669
    1W        W38119   9.917   5.540   0.137 -0.1731  0.0661 -0.1723
    1W        W38120   2.620   0.752   0.846 -0.1388  0.1544  0.1761
    1W        W38121   5.700  23.030   8.494 -0.3346  0.3165  0.0898
    1W        W38122  25.962  16.073   7.006 -0.2755 -0.1119 -0.0553
    1W        W38123  28.140   8.099   0.707  0.0597 -0.0055 -0.0360
    1W        W38124  26.409  12.745   8.627 -0.0541 -0.1439  0.1688
    1W        W38125   7.683   8.260   6.633 -0.0840  0.2903 -0.0025
    1W        W38126   4.043  19.587   1.597  0.1811 -0.1321  0.1666
    1W        W38127  19.810  18.242   2.082  0.0720 -0.1701 -0.0205
    1W        W38128  20.450  22.504   7.621 -0.0881  0.0766 -0.0117
    1W        W38129   8.538  14.762   1.692  0.2958  0.1034  0.1330
    1W        W38130  14.712  14.370   7.674  0.0434 -0.0532  0.0447
    1W        W38131  25.776  17.386   9.583 -0.0563 -0.2434  0.0485
    1W        W38132  28.261  20.393   8.103 -0.0694  0.3365 -0.2401
    1W        W38133   9.807  21.139   9.229  0.0924  0.2075 -0.0706
    1W        W38134   8.899  23.735   6.771  0.3359  0.1687 -0.0680
    1W        W38135   3.825   9.708   0.307 -0.1725 -0.1601  0.1577
    1W        W38136   5.027   3.397   2.331  0.1378  0.0418  0.1447
    1W        W38137   3.039   2.062   3.023 -0.0855 -0.2813 -0.1024
    1W        W38138   8.872   2.091   9.200  0.0667  0.0478 -0.0700
    1W        W38139   6.864   0.844   9.527  0.1275 -0.0908  0.1799
    1W        W38140   6.993  25.987   2.553  0.2974 -0.4838 -0.1859
    1W        W38141  15.313  21.428   9.275  0.1529 -0.1108 -0.1821
    1W        W38142  24.536   5.415   8.052 -0.2347  0.0229 -0.2543
    1W        W38143  26.529  28.764   7.437 -0.0645 -0.3240 -0.0368
    1W        W38144  18.665  14.573   9.076  0.0691 -0.0779  0.0313
    1W        W38145   5.026  24.980   9.285  0.0023 -0.0812  0.0609
    1W        W38146   7.760  23.054   8.401  0.2902  0.2103 -0.2795
    1W        W38147  23.938   5.380   8.376 -0.0032  0.1022  0.2699
    1W        W38148  28.943   8.741   1.297 -0.0964 -0.0576  0.0270
    1W        W38149  21.943   6.659   8.437  0.0143  0.0437  0.0484
    1W        W38150  18.064  14.368   8.439 -0.0024  0.2667 -0.3661
    1W        W38151   2.179  17.749   6.284  0.1105  0.2316 -0.2104
    1W        W38152  20.353   3.285   9.409  0.1198 -0.2127 -0.1703
    1W        W38153   1.516  29.183   0.506  0.1091  0.0380  0.3377
    1W        W38154  20.291  27.455   0.459 -0.0204  0.1182  0.1415
    1W        W38155  13.745  17.576   2.720 -0.1739  0.1745 -0.1272
    1W        W38156  14.914   8.214   1.416  0.1086  0.0728 -0.2109
    1W        W38157  24.385  29.158   9.144  0.1607 -0.2031 -0.0524
    1W        W38158  24.687   3.279   1.403 -0.2042  0.1070 -0.1945
    1W        W38159   5.432  22.047   2.470  0.1123 -0.0631 -0.0259
    1W        W38160   9.544   6.501   2.297 -0.1618  0.0376  0.1295
    1W        W38161   6.487  17.262   6.778  0.1075  0.1344 -0.3359
    1W        W38162  19.192  24.865   7.263  0.1999 -0.0111  0.3131
    1W        W38163   2.155  25.796   2.691 -0.0541 -0.2962  0.3436
    1W        W38164  14.377  20.202   7.188  0.0244 -0.0671 -0.1844
    1W        W38165  24.153   8.512   1.385 -0.1426  0.1462 -0.2702
    1W        W38166  25.597  15.115   0.144 -0.3607 -0.0791  0.3073
    1W        W38167  11.117  19.222   8.060  0.3043 -0.1029  0.1531
    1W        W38168  14.760  10.445   7.599  0.0177  0.2338  0.1433
    1W        W38169   9.896   6.442   2.717  0.2016  0.1742  0.3069
    1W        W38170   4.330  10.188   8.319 -0.1342 -0.1377  0.0689
    1W        W38171  14.398  27.028   9.139  0.2713 -0.0854 -0.0799
    1W        W38172  25.985  28.020   3.251  0.1563 -0.0356  0.0077
    1W        W38173  10.542  17.322   8.749  0.2348 -0.3139 -0.2153
    1W        W38174  23.318  18.112   7.420  0.2764 -0.0030  0.0368
    1W        W38175  19.604   6.884   1.759 -0.0382 -0.0525 -0.0129
    1W        W38176  23.664  28.131   1.796 -0.0721  0.0194  0.0286
    1W        W38177  15.200  28.744   0.558  0.1210 -0.3514 -0.0873
    1W        W38178   5.968  13.438   7.523  0.0181 -0.0090  0.2873
    1W        W38179   7.087  21.543   0.009 -0.0346 -0.0509 -0.0698
    1W        W38180  11.225  27.185   2.318 -0.2282 -0.1681 -0.0333
    1W        W38181  10.725   7.840   7.746  0.3390  0.2235  0.2742
    1W        W38182  15.330   5.505   1.271  0.1328  0.1299 -0.1247
    1W        W38183  13.919   4.903   2.833 -0.2237 -0.1652 -0.3658
    1W        W38184   3.073  15.693   6.453 -0.3951 -0.2514  0.2740
    1W        W38185  17.290  27.721   7.920 -0.3222 -0.2315  0.0992
    1W        W38186   6.735  19.404   1.870 -0.1086 -0.0001 -0.0058
    1W        W38187   2.608   3.581   8.698  0.0592  0.1121  0.0197
    1W        W38188  28.020   3.585   1.965 -0.0620 -0.0521 -0.0799
    1W        W38189  27.527  21.775   7.508 -0.2771 -0.0102 -0.0856
    1W        W38190  21.382   3.508   6.731  0.3255 -0.1561  0.2620
    1W        W38191  19.640   0.322   3.327 -0.1347 -0.1936  0.1598
    1W        W38192  21.871  13.447   1.888  0.1491  0.0670 -0.0806
    1W        W38193  27.511   3.176   9.283 -0.2719 -0.0245  0.0494
    1W        W38194  25.828   3.362   6.069 -0.0445  0.1280  0.4045
    1W        W38195  18.189  21.670   2.041 -0.1934 -0.1127  0.0740
    1W        W38196  22.611   0.037   0.775  0.4637  0.0919 -0.2884
    1W        W38197  17.396  23.603   3.073 -0.0213 -0.1718 -0.0697
    1W        W38198   0.192  28.279   7.544 -0.1958  0.3129  0.1495
    1W        W38199   6.265   1.499   3.533 -0.3508  0.1076 -0.3656
    1W        W38200   0.404   8.491   1.744  0.0479  0.1326  0.0680
    1W        W38201   7.865  26.662   0.376  0.0945 -0.1408 -0.1851
    1W        W38202   4.117  22.762   7.370  0.0990 -0.1756  0.3833
    1W        W38203  26.672  16.435   6.953  0.0471 -0.1904  0.1264
    1W        W38204  21.469   3.900   2.702 -0.0287  0.0373  0.2665
    1W        W38205   2.347  26.191   2.374  0.1462 -0.0991 -0.2449
    1W        W38206  15.867   5.338   9.193  0.2280  0.0293  0.0072
    1W        W38207   4.440  27.642   6.570 -0.0233  0.2517 -0.1803
    1W        W38208  12.935  25.179   2.373 -0.1066  0.1484  0.0878
    1W        W38209   6.440   2.790   8.883 -0.2559  0.1544  0.2688
    1W        W38210   3.439   0.193   9.564  0.0087 -0.1554 -0.0236
    1W        W38211  24.038  27.078   9.378 -0.0436  0.0127  0.0115
    1W        W38212  17.509  18.087   7.718 -0.2342  0.0795  0.2001
    1W        W38213  26.419  14.642   6.512 -0.2697  0.3313  0.3844
    1W        W38214   2.410  22.643   8.278 -0.1746 -0.4409  0.1366
    1W        W38215  29.235   6.972   2.079  0.0832  0.1349 -0.4423
    1W        W38216  20.120  13.756   8.250  0.1243  0.3360 -0.1850
    1W        W38217  19.285  19.735   0.110 -0.1663  0.0366 -0.1333
    1W        W38218  10.708   6.019   8.500  0.0081 -0.3277 -0.1731
    1W        W38219   1.337   3.415   6.196 -0.3263  0.4094 -0.0447
    1W        W38220   8.116   6.169   1.985 -0.1905 -0.2933 -0.1011
    1W        W38221  29.287   3.951   8.666  0.0479 -0.3378  0.0733
    1W        W38222  24.085  20.288   7.715  0.0978  0.0032  0.0192
    1W        W38223  24.518  23.445   8.769  0.0279  0.2339 -0.0947
    1W        W38224  11.897  19.210   0.340  0.2868  0.2609 -0.0078
    1W        W38225  18.110  14.605   1.117 -0.0769  0.2587 -0.0887
    1W        W38226   8.274  25.977   0.322 -0.1034 -0.2857  0.0567
    1W        W38227   8.167  16.159   8.023 -0.0824 -0.1443 -0.2565
    1W        W38228   3.223  26.547   7.478 -0.3245 -0.1660  0.0982
    1W        W38229   8.038  28.641   2.056 -0.1327  0.2079 -0.0978
    1W        W38230   4.286  14.996   0.688 -0.2929  0.1375  0.0586
    1W        W38231   9.038   5.675   6.897 -0.1960  0.0340  0.0260
    1W        W38232  10.862   6.121   9.447 -0.3875 -0.0551  0.1825
    1W        W38233   8.070   8.950   0.172  0.4000  0.0501 -0.0215
    1W        W38234   4.985  20.462   6.903 -0.0568  0.1287 -0.1800
    1W        W38235  14.851  25.181   0.122 -0.0556 -0.1899 -0.0808
    1W        W38236  28.698  19.901   1.515 -0.2031  0.0290  0.3178
    1W        W38237  10.161  27.062   9.071 -0.0870  0.1135  0.0561
    1W        W38238   6.420  26.747   3.468 -0.0569  0.0630  0.0664
    1W        W38239   8.890  11.357   1.607 -0.0603 -0.1064  0.0507
    1W        W38240  28.371  13.393   1.370 -0.0089  0.0553 -0.2693
    1W        W38241  21.003  12.855   8.710  0.1762  0.2823  0.0846
    1W        W38242   9.895  18.585   0.426 -0.3240 -0.2481 -0.0717
    1W        W38243   3.683  28.437   7.208 -0.3399  0.0588  0.0928
    1W        W38244   9.023   0.695   0.817 -0.2877  0.1059  0.0009
    1W        W38245  24.963  15.402   0.093  0.0353  0.1288 -0.2490
    1W        W38246   8.581   1.248   8.332  0.2537  0.0614 -0.0088
    1W        W38247   1.767   8.343   8.221 -0.3192  0.0536  0.0389
    1W        W38248  28.966   2.928   8.181  0.2741 -0.1183  0.4761
    1W        W38249  18.585  27.147   2.982  0.0283 -0.1798 -0.0271
    1W        W38250  12.755  10.540   0.463  0.0409  0.3354 -0.1609
    1W        W38251   2.740  27.867   0.114  0.0209 -0.2726  0.1244
    1W        W38252  10.278  27.513   3.237  0.1982 -0.0793  0.0087
    1W        W38253  27.337  18.511   1.316 -0.0335 -0.3425  0.1248
    1W        W38254  21.425   2.203   8.056  0.1869 -0.1414  0.3289
    1W        W38255  13.940   9.822   9.217  0.0186 -0.0832  0.1094
    1W        W38256  12.282  11.608   2.471  0.1552 -0.2643  0.2956
    1W        W38257  17.091   1.113   9.176 -0.0147 -0.0305 -0.0805
    1W        W38258   3.937   4.165   2.414 -0.1851 -0.0919  0.0379
    1W        W38259   4.636   7.237   1.888 -0.0472  0.0209  0.1627
    1W        W38260  28.139  18.757   8.491 -0.1401  0.0488  0.1070
    1W        W38261   5.155  13.888   1.169 -0.1108  0.0129  0.0971
    1W        W38262  11.726   2.907   8.944 -0.1307  0.3765 -0.4239
    1W        W38263  25.824  12.271   7.761  0.0589 -0.0805  0.1335
    1W        W38264  21.185  29.347   1.995  0.0291  0.2007  0.0850
    1W        W38265  19.593   2.138   2.111  0.1948 -0.1815 -0.0929
    1W        W38266   9.395  19.144   2.549 -0.1029 -0.2082  0.2418
    1W        W38267  21.315  27.674   1.894  0.0175 -0.0003  0.4581
    1W        W38268   3.433  12.431   2.882 -0.0501  0.1072 -0.0624
    1W        W38269  19.629  14.545   8.555 -0.1094 -0.0015  0.3165
    1W        W38270  21.135  24.892   0.904 -0.0567  0.0792 -0.2285
    1W        W38271   3.251  26.870   1.348  0.0421  0.0454  0.1301
    1W        W38272  16.284   6.973   2.188 -0.0072 -0.1549  0.3442
    1W        W38273  20.610  25.822   6.716  0.2422  0.1659 -0.2310
    1W        W38274  20.545   5.763   1.003  0.1704 -0.2728  0.1497
    1W        W38275  26.747  21.968   1.732  0.1144 -0.0447  0.1720
    1W        W38276   2.595  24.987   7.977  0.1469  0.1225  0.0696
    1W        W38277   4.925  11.309   1.890  0.0778  0.2258 -0.2841
    1W        W38278  28.725  16.871   5.968  0.2022  0.0022 -0.1845
    1W        W38279  27.670   6.029   0.118 -0.3021 -0.1782  0.1721
    1W        W38280   2.339   0.772   9.660 -0.0735 -0.1281  0.1884
    1W        W38281   3.872  28.573   7.922 -0.0679  0.0220 -0.2666
    1W        W38282   2.444   2.713   8.843 -0.2329  0.0113 -0.1364
    1W        W38283  11.310  23.040   7.778 -0.0250 -0.1481  0.3643
    1W        W38284  15.918   1.500   0.159 -0.2177  0.0610 -0.2034
    1W        W38285   8.192   6.730   2.185  0.0040  0.0633 -0.0545
    1W        W38286  23.961   6.858   1.751  0.0412  0.1392 -0.1788
    1W        W38287  24.690   0.896   6.063  0.0266  0.3853  0.1523
    1W        W38288  19.883  19.577   2.395 -0.4912 -0.0783 -0.1469
    1W        W38289  18.017  21.564   1.238 -0.0024  0.1228 -0.0235
    1W        W38290   5.870  17.661   0.301  0.1582  0.0373  0.1849
    1W        W38291  19.582  17.297   0.564 -0.0271 -0.2235 -0.0809
    1W        W38292   9.241   8.093   0.031  0.1115 -0.1173 -0.0907
    1W        W38293  12.510   1.654   2.631  0.1809  0.0993 -0.0096
    1W        W38294   3.729   5.376   8.054 -0.0029  0.1461 -0.0477
    1W        W38295   0.087  13.563   1.387 -0.2118  0.0334 -0.2108
    1W        W38296  18.664  14.929   0.841 -0.1637  0.0282  0.0245
    1W        W38297  14.984   2.811   0.321 -0.3609  0.0224 -0.1978
    1W        W38298   4.426  26.475   9.610 -0.0200  0.0032  0.0438
    1W        W38299   4.102  22.080   8.198  0.1781  0.2762  0.0761
    1W        W38300   8.385   7.222   2.195 -0.0872  0.2215  0.1447
    1W        W38301  18.627   1.116   8.211  0.0229 -0.0519  0.0178
    1W        W38302  15.378  24.385   7.293 -0.3304 -0.1863 -0.0356
    1W        W38303  23.091   3.291   6.317  0.0522 -0.0432 -0.2045
    1W        W38304  21.767  24.460   2.407 -0.1315 -0.2628  0.0508
    1W        W38305  25.661   9.178   6.720  0.2121 -0.0231 -0.0185
    1W        W38306  12.610  24.658   8.690  0.1168 -0.1393  0.2221
    1W        W38307   2.226  24.916   7.636 -0.2135 -0.4664  0.2241
    1W        W38308   1.351  13.427   7.441 -0.3600  0.2225  0.0355
    1W        W38309   6.321  27.225   8.064 -0.1522  0.3451 -0.1592
    1W        W38310  12.289  11.561   7.569 -0.1091  0.1746 -0.0237
    1W        W38311  29.151  16.595   8.317  0.0249 -0.1875  0.1304
    1W        W38312  21.050  22.037   9.080 -0.0365  0.3463 -0.4577
    1W        W38313   4.759  22.046   7.783  0.1123 -0.0799  0.1689
    1W        W38314   0.144  14.762   0.884 -0.2631 -0.0770 -0.2421
    1W        W38315  14.705  23.797   2.858 -0.0811 -0.1957  0.1027
    1W        W38316   4.704  26.602   2.582  0.0744 -0.0635  0.0870
    1W        W38317  10.089  17.774   7.221  0.1647 -0.0572  0.1359
    1W        W38318  19.451  26.746   7.040  0.0380  0.3102  0.1441
    1W        W38319  28.534  26.298   1.784  0.1663  0.1860  0.1359
    1W        W38320  24.439   6.884   0.521  0.1092 -0.2554 -0.0294
    1W        W38321  22.689  12.874   1.590 -0.2984  0.0595  0.0960
    1W        W38322   5.227  24.323   2.802  0.0641  0.1702  0.1549
    1W        W38323  22.382   9.130   2.591  0.0505  0.2239 -0.1047
    1W        W38324   9.086   9.507   6.955 -0.3270  0.2594  0.2578
    1W        W38325  28.018   4.485   7.296  0.0410 -0.2827 -0.0795
    1W        W38326  27.443  13.506   9.218  0.2962  0.1251  0.1767
    1W        W38327  23.774  17.957   7.661 -0.0918 -0.0109  0.0897
    1W        W38328  25.859  20.210   1.908  0.0538 -0.1248 -0.0192
    1W        W38329  14.236   3.848   7.855 -0.1361  0.0380  0.2348
    1W        W38330  16.682  13.513   1.689 -0.1724 -0.0019  0.3069
    1W        W38331  17.787  22.247   8.901  0.2860  0.1011  0.0566
    1W        W38332   4.520  20.549   9.167  0.0914 -0.0017 -0.0776
    1W        W38333  13.109  10.719   0.795 -0.2488 -0.3891 -0.0869
    1W        W38334  22.791   3.187   1.524  0.0865  0.3803 -0.0388
    1W        W38335  11.819   8.429   0.197  0.0167 -0.2536  0.2159
    1W        W38336  26.270  20.364   0.733  0.0737 -0.0348  0.2187
    1W        W38337   6.046  15.992   0.171 -0.1824  0.1384 -0.1511
    1W        W38338  23.819   8.113   0.653  0.0659 -0.2051  0.2478
    1W        W38339   4.285   7.237   7.241  0.3134  0.2503  0.2356
    1W        W38340  14.560  23.819   7.210  0.1630  0.1330 -0.0577
    1W        W38341  25.953   7.500   1.435  0.0446 -0.0988  0.0289
    1W        W38342   4.924   5.678   8.716 -0.2273 -0.0973  0.1461
    1W        W38343  19.763   3.669   1.766  0.0058  0.2073 -0.0184
    1W        W38344   6.515   6.453   3.002  0.4064  0.1825 -0.1149
    1W        W38345   3.574   4.268   8.048 -0.0960  0.1188 -0.0145
    1W        W38346  13.782   6.926   2.040 -0.2053  0.0992  0.2254
    1W        W38347  13.506   6.895   0.351 -0.0171 -0.0846  0.0791
    1W        W38348  27.546  21.278   7.250  0.3070 -0.0794  0.0159
    1W        W38349  17.324  28.183   1.245 -0.1038  0.1288  0.1314
    1W        W38350   1.200   9.939   0.127  0.1991 -0.1304 -0.0330
    1W        W38351  18.557  17.806   2.139  0.0090  0.1267  0.1385
    1W        W38352  11.018  12.209   2.123 -0.1335  0.0387  0.0457
    1W        W38353  12.144  29.006   3.045  0.0819 -0.0532  0.3444
    1W        W38354   4.902  18.757   8.470  0.0022 -0.0834 -0.1983
    1W        W38355  22.236  25.702   2.557 -0.1928  0.0271  0.1023
    1W        W38356  15.174   6.239   1.809  0.0096  0.1104  0.2652
    1W        W38357  23.237  23.193   0.499 -0.2258  0.0931 -0.0467
    1W        W38358   7.179   2.329   0.304 -0.1505 -0.2486 -0.1138
    1W        W38359  20.245   5.261   2.143 -0.0018  0.1429 -0.3753
    1W        W38360  14.965   7.563   2.567 -0.0580 -0.2824  0.1528
    1W        W38361  24.457  25.755   8.191 -0.0409 -0.0771  0.1448
    1W        W38362  11.077  20.652   0.151  0.2243  0.1028 -0.3557
    1W        W38363  22.004  10.482   2.395 -0.3214 -0.1786  0.0752
    1W        W38364   7.834   8.477   1.791  0.1377  0.1302 -0.0937
    1W        W38365  22.416   2.238   0.907 -0.2392 -0.0712  0.0074
    1W        W38366  19.658  26.451   1.937  0.2226  0.0617 -0.3041
    1W        W38367  25.895   4.403   9.148  0.0064 -0.1041  0.0434
    1W        W38368  22.737  17.262   0.708 -0.3293 -0.3970  0.0581
    1W        W38369  24.522  19.399   9.185  0.2114  0.1862  0.1833
    1W        W38370  22.850  17.284   1.529  0.0046  0.2964 -0.1976
    1W        W38371  25.375   0.937   7.513 -0.1410  0.3104 -0.1311
    1W        W38372  15.061  23.906   1.556 -0.1385 -0.0823  0.1152
    1W        W38373  22.561  22.916   7.664 -0.1711  0.1721 -0.0865
    1W        W38374  26.121   7.776   8.723 -0.2147  0.2631 -0.1783
    1W        W38375  19.395   8.825   0.022 -0.1624 -0.3709  0.0440
    1W        W38376   7.588   9.806   0.499 -0.0725 -0.3251 -0.2451
    1W        W38377  22.376   1.592   2.612 -0.3326 -0.3086  0.0194
    1W        W38378  17.318   9.813   8.226 -0.0180  0.0229 -0.1399
    1W        W38379   9.057   1.801   7.379 -0.1716 -0.1019 -0.0223
    1W        W38380  18.671  23.587   9.384 -0.1097 -0.0137 -0.0313
    1W        W38381   9.875  16.564   8.809 -0.0255  0.2316 -0.0087
    1W        W38382  26.571  15.094   9.095 -0.0892  0.0611  0.1190
    1W        W38383  17.479   6.650   7.525  0.0096 -0.1306 -0.0227
    1W        W38384  15.029   8.991   8.611 -0.0980  0.1462 -0.0052
    1W        W38385  26.266  11.666   1.455  0.3998 -0.2152  0.1026
    1W        W38386  20.425   6.200   3.306 -0.0602  0.0938 -0.2913
    1W        W38387  22.167   4.699   6.427 -0.0193  0.0454 -0.2489
    1W        W38388  15.278  18.039   0.580 -0.2732 -0.2911 -0.1714
    1W        W38389  27.906  28.099   9.195 -0.2815 -0.0277 -0.0165
    1W        W38390  25.153   8.753   0.553  0.1533 -0.0850 -0.2356
    1W        W38391  14.213  27.051   0.702 -0.2571 -0.0594  0.0563
    1W        W38392   0.995  11.025   2.795 -0.1733  0.2812  0.2516
    1W        W38393  15.907  15.292   2.049  0.1094 -0.0835  0.1590
    1W        W38394   2.659  17.387   1.439  0.0283 -0.0437 -0.0224
    1W        W38395   4.926   2.795   9.387 -0.1743  0.3170  0.0713
    1W        W38396   9.687  15.089   7.458 -0.0194 -0.0477  0.0296
    1W        W38397  13.825  24.217   1.402 -0.0605  0.1258  0.3426
    1W        W38398  19.377  26.204   7.333  0.0236  0.0305 -0.3861
    1W        W38399   1.912   6.731   1.346 -0.0490  0.1392 -0.1451
    1W        W38400  10.451   6.680   0.710  0.0243 -0.2110  0.1412
    1W        W38401   2.947  10.205   2.264 -0.1573  0.0923  0.0108
    1W        W38402  26.215   6.992   8.631 -0.2692  0.3619 -0.0272
    1W        W38403   1.588  21.951   7.755 -0.0883  0.0707 -0.1453
    1W        W38404  18.372  11.713   1.315 -0.0599 -0.0194 -0.2185
    1W        W38405  23.412  25.112   1.388  0.2403 -0.1538  0.1798
    1W        W38406  28.537  26.915   7.594  0.0073 -0.2638  0.2012
    1W        W38407  25.148  20.066   8.817  0.1578 -0.0183 -0.0559
    1W        W38408  18.693  20.362   1.280 -0.4300 -0.1738 -0.0782
    1W        W38409  15.347  13.249   7.503 -0.0654 -0.1863 -0.2372
    1W        W38410  25.817  10.255   8.355  0.0042  0.0819  0.3958
    1W        W38411   8.190  13.798   8.528  0.2690 -0.1183 -0.0222
    1W        W38412   1.881  21.874   6.592 -0.2260 -0.4577  0.0058
    1W        W38413  22.049   6.649   7.352  0.2063 -0.1959 -0.0469
    1W        W38414   2.495  12.865   6.467  0.3613 -0.1882  0.0188
    1W        W38415  11.510  23.510   7.570  0.0147  0.2452  0.0237
    1W        W38416   2.278  17.935   0.346 -0.2047  0.3866 -0.0031
    1W        W38417  12.364  27.041   0.729 -0.1403 -0.0217 -0.0040
    1W        W38418   7.206  17.901   8.727  0.0127  0.1665  0.1251
    1W        W38419   7.459  20.297   0.367  0.0059 -0.2831 -0.1211
    1W        W38420  17.683  28.491   1.957  0.1020 -0.0343 -0.2502
    1W        W38421  22.420   1.738   0.618 -0.1831 -0.2651  0.0817
    1W        W38422  22.133   0.671   5.664  0.0700 -0.3041  0.2160
    1W        W38423  28.399  26.712   1.435 -0.0812  0.0565 -0.1635
    1W        W38424  21.901  24.882   8.481  0.2065  0.0184 -0.2211
    1W        W38425   3.561  26.251   1.965  0.2021 -0.0926 -0.2735
    1W        W38426  12.456  18.057   1.911 -0.0434 -0.2326 -0.2142
    1W        W38427   6.643  21.242   6.787 -0.2133  0.0215  0.1104
    1W        W38428  25.120  22.504   6.415 -0.1463  0.0124  0.1032
    1W        W38429   3.087  18.891   0.903  0.4314 -0.2057 -0.3302
    1W        W38430   7.572   6.405   8.669  0.0200 -0.3036  0.1007
    1W        W38431   1.008  28.758   9.330  0.0589  0.1383 -0.0723
    1W        W38432   7.660   9.890   2.362  0.0810 -0.2235 -0.2742
    1W        W38433  19.131   3.205   7.740  0.2578  0.0810 -0.0208
    1W        W38434  25.375  25.776   0.376  0.0049 -0.1131  0.2419
    1W        W38435  20.154  23.841   0.631 -0.1531  0.2551 -0.3344
    1W        W38436   5.293  20.114   7.768 -0.0513  0.2532  0.1446
    1W        W38437   8.688  29.282   1.802  0.1498 -0.0227  0.0818
    1W        W38438   4.279  10.891   7.655  0.1288 -0.5139  0.0877
    1W        W38439   9.301   1.586   0.944  0.0573 -0.3105  0.0457
    1W        W38440   3.277   1.989   5.663  0.0839  0.0056  0.2454
    1W        W38441   4.062   5.905   0.177 -0.0427 -0.0090 -0.3270
    1W        W38442   4.118   1.050   6.436 -0.1768 -0.1907 -0.0007
    1W        W38443  23.875  10.539   9.594 -0.0415  0.1614 -0.2926
    1W        W38444   9.887   0.568   8.104  0.2602 -0.1843  0.1574
    1W        W38445  29.299  20.896   2.016 -0.0497  0.1853  0.1033
    1W        W38446  29.015  18.286   7.708 -0.0231 -0.0582 -0.1493
    1W        W38447   3.289  11.771   1.217  0.1394 -0.0709 -0.1196
    1W        W38448   4.288  14.895   2.843 -0.2158 -0.1894  0.0921
    1W        W38449  23.850  14.123   7.153  0.2139 -0.2611 -0.0700
    1W        W38450  23.058   6.900   2.260  0.2471 -0.1650  0.1762
    1W        W38451  21.534   9.771   2.176  0.1107  0.0310 -0.1185
    1W        W38452  26.082  18.028   1.622  0.0842 -0.2313  0.1606
    1W        W38453  15.373  22.390   9.339 -0.0498 -0.1409  0.1809
    1W        W38454  23.931   7.126   2.212 -0.1650 -0.2284 -0.1533
    1W        W38455   2.193  13.398   1.746  0.0536  0.3269  0.0513
    1W        W38456   1.935  14.145   7.199 -0.2666  0.0130  0.0257
    1W        W38457  11.988  27.403   1.656  0.2178 -0.1437  0.0101
    1W        W38458   2.098  24.962   8.148  0.1277  0.1705  0.2034
    1W        W38459  27.193   8.813   2.525  0.1468  0.1032  0.5497
    1W        W38460  26.073   7.159   1.042 -0.0994  0.3354  0.0023
    1W        W38461   6.445  21.526   7.730  0.2757  0.2413 -0.1038
    1W        W38462  21.092   3.574   6.092  0.0998 -0.0482 -0.0924
    1W        W38463  23.310  15.997   7.998 -0.1674  0.3874  0.4522
    1W        W38464  10.906  11.806   9.342  0.0388  0.0737 -0.2103
    1W        W38465   7.630  18.968   0.985  0.0762 -0.1614  0.2555
    1W        W38466  16.819  10.572   1.744 -0.1963  0.0961  0.0557
    1W        W38467   6.021  23.823   6.797 -0.1305  0.3440  0.1448
    1W        W38468  22.830  18.618   1.775  0.1400  0.0559  0.0319
    1W        W38469   7.423  21.773   8.409 -0.0629 -0.0055 -0.0897
    1W        W38470  11.856  13.379   0.171  0.1661  0.3428 -0.1367
    1W        W38471   3.055  23.957   7.331  0.1092  0.0158 -0.2177
    1W        W38472  12.729   0.057   0.348  0.1616  0.0441 -0.0586
    1W        W38473  28.408  24.789   9.382  0.3930  0.2357  0.1740
    1W        W38474  19.453  22.616   6.604 -0.3034  0.1172  0.2256
    1W        W38475  23.763   5.185   7.109  0.1558  0.1413 -0.1419
    1W        W38476  21.358  14.570   0.316  0.1449  0.1802  0.0863
    1W        W38477  10.563  25.538   8.413 -0.1104 -0.1170 -0.0930
    1W        W38478   1.092  21.899   9.462  0.2364  0.0652 -0.0467
    1W        W38479  16.706  20.105   0.381  0.1597  0.0363 -0.0190
    1W        W38480  16.363  20.936   0.555 -0.0824  0.1754  0.0918
    1W        W38481   8.271  13.854   0.313 -0.3279 -0.0162 -0.2207
    1W        W38482  28.245  24.142   1.990  0.1081 -0.1241 -0.0025
    1W        W38483  12.580  27.727   7.963  0.3123  0.1241 -0.1461
    1W        W38484  21.839   4.324   9.079 -0.0509 -0.0662 -0.0925
    1W        W38485  26.576  17.826   1.517  0.2460  0.0123 -0.0769
    1W        W38486  28.202  23.909   9.635 -0.1854  0.1013 -0.0371
    1W        W38487   9.754   3.837   8.284  0.0734  0.1166 -0.2133
    1W        W38488  12.729  18.490   1.702 -0.1876  0.1069 -0.2281
    1W        W38489   0.256  20.787   2.426 -0.2573  0.1445 -0.0772
    1W        W38490  21.597  23.246   0.728  0.0169  0.1080  0.2696
    1W        W38491  24.125  12.564   6.683  0.1453 -0.0925  0.2354
    1W        W38492  14.271   6.019   9.516  0.0250 -0.0413 -0.0571
    1W        W38493   8.232  12.775   9.545  0.0426  0.0356 -0.4457
    1W        W38494  12.504   0.422   2.840 -0.1999 -0.0918  0.0511
    1W        W38495   5.152   9.508   6.481 -0.1192  0.1506 -0.2394
    1W        W38496  17.442  18.978   2.340 -0.0381 -0.0711 -0.0701
    1W        W38497  14.045  16.259   1.170  0.2370 -0.1728  0.2636
    1W        W38498  24.959   7.617   6.966 -0.3806 -0.0602 -0.2243
    1W        W38499  20.257   5.403   9.616 -0.1268 -0.1223  0.0427
    1W        W38500   6.875  14.591   1.428  0.2453  0.0611 -0.2243
    1W        W38501  19.432  15.564   8.525  0.0067 -0.1034  0.3101
    1W        W38502  28.576   9.977   8.808 -0.0194 -0.1693  0.4668
    1W        W38503  25.369   2.316   1.973  0.0217 -0.3195 -0.2411
    1W        W38504   6.318  12.570   1.366 -0.0661  0.2400  0.2434
    1W        W38505   9.455   0.316   2.835 -0.1322 -0.1524  0.0849
    1W        W38506  24.068   1.964   0.660 -0.1132  0.0259 -0.3094
    1W        W38507  29.217  21.453   1.207 -0.0470  0.1800  0.1260
    1W        W38508  10.183   6.545   0.328 -0.1535 -0.1256  0.0588
    1W        W38509  19.430  25.951   2.085 -0.1525 -0.0270 -0.0575
    1W        W38510   6.150  22.216   6.968  0.1764 -0.0569  0.1127
    1W        W38511  14.125  20.088   0.361 -0.0931  0.1343 -0.0917
    1W        W38512  26.723  24.533   0.680 -0.1486  0.1642  0.0847
    1W        W38513  12.673  26.179   8.599  0.1284 -0.2271 -0.0866
    1W        W38514   0.428  27.697   6.550  0.1985  0.0575  0.3502
    1W        W38515  14.941  21.152   1.924  0.0035 -0.0024  0.0809
    1W        W38516  27.181  26.867   9.425  0.2011 -0.2463  0.0740
    1W        W38517  18.939   8.806   7.644 -0.0103  0.0657  0.0068
    1W        W38518  16.912  24.237   9.456 -0.2429 -0.1412  0.1806
    1W        W38519   4.390  14.000   1.717 -0.4072  0.0864 -0.0790
    1W        W38520  22.551  14.280   9.225  0.3567  0.0464 -0.1672
    1W        W38521   9.291   2.567   9.102  0.2136  0.0920  0.0121
    1W        W38522   8.092   1.321   8.191  0.1756  0.0091 -0.4589
    1W        W38523  16.616  26.307   1.030 -0.0490 -0.2016  0.0686
    1W        W38524   7.932  24.643   0.471  0.7534  0.2394  0.1145
    1W        W38525   8.902   4.280   0.400  0.0539  0.1683  0.0948
    1W        W38526   0.482  11.059   7.242  0.4413  0.1496 -0.0200
    1W        W38527  24.087  22.159   6.570 -0.0390  0.1976 -0.0205
    1W        W38528  18.398  21.928   2.504 -0.0221 -0.0485 -0.1322
    1W        W38529  11.596   2.835   2.475 -0.1061  0.1174  0.2299
    1W        W38530  21.709  19.759   0.052  0.0300  0.2975 -0.0475
    1W        W38531  27.557   8.831   6.850 -0.2179  0.0974 -0.0582
    1W        W38532  22.050   4.106   6.929 -0.0393  0.1810  0.1438
    1W        W38533  25.139  24.657   6.200 -0.0102  0.1159 -0.0552
    1W        W38534  26.236  15.095   6.518 -0.1175 -0.0614 -0.1399
    1W        W38535  14.408   4.740   8.811 -0.0028  0.0982 -0.0799
    1W        W38536  25.163  15.752   7.397  0.1033 -0.0223  0.2249
    1W        W38537   3.080   7.743   1.076  0.0131 -0.1831 -0.2071
    1W        W38538  22.227  12.241   8.618 -0.0627 -0.2651  0.1381
    1W        W38539  19.952  19.802   9.140  0.0280  0.0806  0.0307
    1W        W38540  24.509  26.906   0.299  0.0728  0.1373  0.0072
    1W        W38541  19.810   0.997   7.027  0.1647  0.1472  0.2218
    1W        W38542  18.317  16.449   8.451 -0.0680 -0.0646 -0.0106
    1W        W38543  17.049  25.845   1.168 -0.0465  0.1211 -0.0225
    1W        W38544  25.355   1.762   6.787 -0.0077 -0.0594  0.1936
    1W        W38545  24.600   0.097   2.889  0.1478  0.1221 -0.1250
    1W        W38546   3.330  21.983   0.854  0.1285 -0.0593 -0.0592
    1W        W38547  21.939   9.878   9.059  0.1408  0.1142  0.3597
    1W        W38548  18.811  11.871   0.850 -0.2546 -0.1692 -0.0394
    1W        W38549   1.478  17.410   1.522  0.4207  0.0393  0.1344
    1W        W38550   1.102  26.586   2.332  0.1851  0.0693 -0.1128
    1W        W38551   3.643  15.933   7.755 -0.0458  0.2495 -0.0882
    1W        W38552   5.073  11.192   7.939  0.0957 -0.0373 -0.1449
    1W        W38553  22.110  13.959   1.013 -0.0658 -0.1440 -0.0492
    1W        W38554   1.328  25.197   6.940 -0.0255  0.2659 -0.0327
    1W        W38555   2.182   1.605   9.195 -0.1662  0.1465 -0.2600
    1W        W38556  13.009  14.154   8.524  0.1254  0.0768 -0.2307
    1W        W38557  29.319   1.245   9.275 -0.3522  0.0956 -0.1531
    1W        W38558   2.048  19.450   6.269  0.2140 -0.1109  0.1045
    1W        W38559  19.816  16.484   8.095 -0.0197  0.0196  0.3673
    1W        W38560   2.702  22.534   1.442  0.0716  0.5686  0.0250
    1W        W38561  26.096  14.753   6.101  0.2260  0.1765 -0.0692
    1W        W38562  16.147   2.720   0.735 -0.1055  0.0910 -0.1699
    1W        W38563  25.056  17.502   0.943  0.3807 -0.1535 -0.0220
    1W        W38564  17.121  25.126   3.395 -0.1251 -0.3340 -0.0187
    1W        W38565  20.252  20.484   0.593 -0.1169 -0.1599  0.2571
    1W        W38566   8.208   3.336   2.516 -0.0107 -0.0855  0.0361
    1W        W38567   7.898   6.800   6.611 -0.0967  0.1656  0.0941
    1W        W38568   6.993  15.908   6.180 -0.1780  0.3752  0.0907
    1W        W38569   4.240  26.722   2.555  0.0633  0.1027  0.0688
    1W        W38570   2.473  15.673   1.762  0.0301  0.2715 -0.1628
    1W        W38571  22.577  17.826   8.569 -0.0548 -0.2111 -0.1414
    1W        W38572  24.572   8.384   8.294 -0.1574 -0.3485  0.0932
    1W        W38573  27.014   5.443   6.961 -0.0415 -0.1069  0.1553
    1W        W38574   5.474  23.664   9.509  0.1547 -0.1334 -0.0147
    1W        W38575  16.217  18.913   0.821  0.0326 -0.0015  0.2496
    1W        W38576   1.782  16.912   9.198  0.1820 -0.0581  0.0059
    1W        W38577  23.776  24.988   7.659  0.0135  0.1816 -0.2099
    1W        W38578   6.597  10.275   7.002 -0.0586 -0.0233 -0.3434
    1W        W38579  25.742   8.220   8.996  0.1390 -0.1343  0.0247
    1W        W38580  22.653   3.872   7.617 -0.2165  0.1209  0.2047
    1W        W38581   1.201  13.490   6.175 -0.1225  0.0336 -0.3125
    1W        W38582  17.484  25.951   9.533 -0.1162  0.2807  0.0064
    1W        W38583  11.274   5.165   6.652  0.2126  0.3830  0.1247
    1W        W38584   8.193   3.096   1.185 -0.3188  0.0046  0.2358
    1W        W38585  22.642  19.098   7.232 -0.0036  0.0640  0.0304
    1W        W38586  13.952  18.526   9.524  0.2817 -0.1084 -0.3491
    1W        W38587   9.343  26.145   9.074 -0.1091  0.2166 -0.2317
    1W        W38588   8.748   8.363   2.680  0.1122  0.2126 -0.0354
    1W        W38589  28.128  18.920   2.240  0.2432 -0.2274 -0.4080
    1W        W38590  21.848  17.368   2.289 -0.1281 -0.1740  0.1534
    1W        W38591  22.288   9.502   9.090 -0.1212 -0.1117  0.2142
    1W        W38592  26.168   2.118   8.534 -0.1809  0.0346  0.2668
    1W        W38593   1.209  23.432   8.811  0.0410 -0.1529  0.1317
    1W        W38594  21.003  18.412   0.090 -0.3039  0.0835 -0.0322
    1W        W38595  20.386  18.793   7.439  0.2161  0.3333 -0.1951
    1W        W38596   1.531  17.628   8.422 -0.2476 -0.1055 -0.0879
    1W        W38597   7.178  12.554   3.412  0.0170 -0.1537  0.0286
    1W        W38598   0.435  15.166   0.092 -0.0541 -0.1078  0.0279
    1W        W38599   0.455   1.701   3.456  0.2210 -0.0884  0.1221
    1W        W38600  12.290   0.916   0.801 -0.0365 -0.0030 -0.0149
    1W        W38601   3.872  11.231   8.846  0.0572 -0.1991  0.0694
    1W        W38602  21.974  22.006   1.902 -0.3415  0.1044  0.2250
    1W        W38603  11.089  13.997   9.435  0.1684 -0.0560  0.3577
    1W        W38604  11.084   3.076   3.720 -0.2680  0.1467 -0.2570
    1W        W38605   2.757   6.524   8.364  0.2068 -0.2705 -0.3769
    1W        W38606   5.934  10.053   2.380  0.0923  0.0719 -0.2664
    1W        W38607  23.607   1.177   0.695 -0.0184  0.1515  0.0057
    1W        W38608  23.192   2.465   7.426  0.4181  0.0473  0.0236
    1W        W38609  13.211  13.633   1.302  0.0004 -0.3898  0.1160
    1W        W38610  11.980  10.727   1.083  0.0628  0.2582 -0.4665
    1W        W38611  10.248   9.502   1.749  0.1333  0.0769  0.0165
    1W        W38612  15.625   6.290   1.538 -0.0572  0.2315 -0.3566
    1W        W38613  22.358  13.846   9.479 -0.1059  0.0888  0.2048
    1W        W38614   7.371   7.416   8.904 -0.1052  0.0861 -0.1785
    1W        W38615   6.410   6.846   8.488 -0.4179 -0.0262 -0.1067
    1W        W38616  21.473   7.901   1.913 -0.1429 -0.0883  0.0936
    1W        W38617  11.990   5.642   2.592  0.2757  0.1647 -0.0792
    1W        W38618  11.100  17.853   7.372  0.0765 -0.2632 -0.0300
    1W        W38619   9.451   4.955   2.725  0.3678  0.0016  0.1746
    1W        W38620   9.192   2.275   3.451  0.1245  0.2375 -0.1227
    1W        W38621   7.924  26.233   1.781  0.0532  0.0986  0.2630
    1W        W38622  16.825  13.572   8.389  0.0618 -0.3415 -0.2108
    1W        W38623  16.843   0.029   2.376  0.0010  0.0937 -0.0814
    1W        W38624  17.972  26.096   0.842 -0.2195 -0.3933 -0.0099
    1W        W38625  22.542   0.495   7.550 -0.3048  0.0846  0.3815
    1W        W38626   9.441  21.190   7.368 -0.1027 -0.0070 -0.0206
    1W        W38627   6.085  25.515   0.907  0.3865  0.0668  0.4045
    1W        W38628   7.132   7.215   9.316 -0.0471 -0.2832  0.0248
    1W        W38629   9.928  18.634   8.499  0.1885  0.0335  0.1266
    1W        W38630  16.470  23.605   7.905  0.0447  0.0625 -0.0258
    1W        W38631  17.540   0.997   0.655  0.0394 -0.0831  0.2426
    1W        W38632  18.201  26.050   1.966 -0.1177 -0.0548 -0.1607
    1W        W38633  13.193  27.467   1.117 -0.0519  0.0591  0.3856
    1W        W38634   7.896   3.537   0.762  0.1351 -0.3757 -0.1087
    1W        W38635  27.587  15.179   6.005 -0.2254 -0.0703  0.3570
    1W        W38636   4.984   8.230   6.402 -0.2314 -0.0255  0.0996
    1W        W38637   0.296  12.085   7.924 -0.0207  0.1049  0.2277
    1W        W38638   0.295   6.456   7.405 -0.0430 -0.2261 -0.1804
    1W        W38639  15.869  27.580   0.989 -0.0497 -0.2083  0.0964
    1W        W38640  27.543   9.739   2.105 -0.3125  0.1216  0.1172
    1W        W38641  21.975  10.052   7.642 -0.1164  0.0011 -0.1071
    1W        W38642  21.434  22.472   8.369  0.2363 -0.1146  0.2204
    1W        W38643  21.590  21.380   7.776 -0.2740 -0.0543  0.0937
    1W        W38644   9.455   6.554   0.083 -0.0550 -0.1374  0.1335
    1W        W38645   6.717   9.799   8.707 -0.1343 -0.3048 -0.1421
    1W        W38646  14.719   0.763   7.590 -0.0197  0.2000  0.1285
    1W        W38647   9.507  25.965   1.651  0.1835 -0.1359  0.2158
    1W        W38648   5.953  14.305   6.957  0.0049  0.2204 -0.2193
    1W        W38649  21.315  16.325   9.611  0.1581 -0.0805  0.2547
    1W        W38650  16.114   6.598   1.373 -0.0515 -0.2289 -0.0474
    1W        W38651  13.522  22.431   7.223 -0.2278 -0.0316  0.0046
    1W        W38652  26.373   7.127   7.190  0.1743  0.1213 -0.1013
    1W        W38653  17.102   2.866   7.890 -0.1409  0.5605 -0.2114
    1W        W38654  12.667  27.978   2.699  0.2705 -0.0625  0.2268
    1W        W38655   3.931  22.475   9.276 -0.2229  0.2884  0.0028
    1W        W38656  25.213   9.481   6.343 -0.0416  0.2444 -0.4394
    1W        W38657  11.355  20.565   8.615  0.2211 -0.0745  0.0694
    1W        W38658   3.472  21.085   8.176 -0.3858  0.2582 -0.2467
    1W        W38659   0.543  20.290   7.103  0.1215  0.2744 -0.0412
    1W        W38660   2.998   0.045   6.705  0.2807  0.0531 -0.2519
    1W        W38661  24.192   0.871   7.108  0.2179  0.1742  0.2706
    1W        W38662   9.922   1.250   9.408  0.0518 -0.1336 -0.2491
    1W        W38663  10.842   0.577   1.559 -0.3783  0.3984 -0.0495
    1W        W38664  28.626  18.009   6.086  0.1517 -0.2483 -0.1536
    1W        W38665  17.222   7.987   1.767 -0.0555 -0.1185  0.2677
    1W        W38666  26.300  10.171   8.528 -0.0600 -0.1111 -0.0201
    1W        W38667   2.245  17.403   1.068  0.5347 -0.2244 -0.0941
    1W        W38668   9.439  26.504   8.065  0.3819  0.0310 -0.0233
    1W        W38669  14.015   4.220   1.078 -0.1260 -0.2487  0.1663
    1W        W38670   7.233  24.462   6.388  0.0947 -0.0274 -0.2666
    1W        W38671   4.652   6.149   2.359 -0.1192 -0.0572 -0.0013
    1W        W38672   7.948   9.061   0.708  0.0632  0.0627  0.2282
    1W        W38673   6.416  14.367   6.857  0.1965 -0.2244 -0.0334
    1W        W38674   4.665  22.233   3.016  0.1808  0.0184  0.0233
    1W        W38675  25.350  16.557   7.592  0.2680  0.0741  0.1558
    1W        W38676   5.898   2.224   0.448 -0.0603 -0.1454 -0.1016
    1W        W38677  19.422  14.006   9.243 -0.0944 -0.2041 -0.0279
    1W        W38678  16.340   8.023   7.605 -0.0859  0.1912  0.2237
    1W        W38679  21.158   4.818   2.156 -0.0306 -0.2108  0.1110
    1W        W38680   1.724  12.553   2.155  0.2468  0.0194 -0.0406
    1W        W38681  12.134  12.344   1.692 -0.1267 -0.2316 -0.0450
    1W        W38682   8.180  23.820   0.600  0.2047  0.1986 -0.1306
    1W        W38683  17.884  18.949   7.805 -0.1893 -0.0032 -0.0845
    1W        W38684  14.077   2.670   8.582  0.1857 -0.2029 -0.1010
    1W        W38685  23.517  14.565   8.077 -0.3403 -0.0438 -0.1022
    1W        W38686  27.645  22.850   0.670 -0.2683 -0.1404  0.1510
    1W        W38687   4.118  29.178   3.465  0.0244 -0.1533 -0.2738
    1W        W38688  20.520   5.067   0.082  0.1516 -0.0064 -0.1146
    1W        W38689  21.187  19.505   0.270 -0.2321 -0.1357 -0.2309
    1W        W38690   7.063  10.075   2.225  0.2359 -0.0375  0.1984
    1W        W38691  16.284  21.345   7.356 -0.0803 -0.1686  0.1399
    1W        W38692  27.735  13.886   9.206 -0.1636  0.2073 -0.2904
    1W        W38693   3.327  18.831   8.144  0.0062 -0.0327  0.3263
    1W        W38694  23.673  18.156   0.714 -0.0720  0.0681 -0.2359
    1W        W38695  11.853   2.176   2.017  0.0381 -0.0285 -0.1485
    1W        W38696   6.147  22.848   6.390  0.1313  0.2674  0.1126
    1W        W38697  19.256   9.521   2.565  0.1529  0.0012 -0.1228
    1W        W38698  11.924  10.627   0.262 -0.0754  0.0473  0.0487
    1W        W38699  17.172   9.657   0.500  0.5299  0.2470  0.1388
    1W        W38700  29.197   8.459   6.099 -0.0416 -0.2934 -0.0199
    1W        W38701   6.768  11.312   8.105  0.0843  0.1859  0.0887
    1W        W38702  14.829  21.623   9.040  0.3721  0.2923 -0.0416
    1W        W38703   6.009  22.626   9.332 -0.0157 -0.1438 -0.0862
    1W        W38704   0.150   6.081   8.164 -0.0210  0.1428 -0.0001
    1W        W38705   7.036   3.226   0.162 -0.1501 -0.0338 -0.2661
    1W        W38706   2.022   9.787   9.332  0.2654 -0.1687 -0.3585
    1W        W38707  19.281  15.010   8.438  0.1038 -0.0639 -0.0933
    1W        W38708   9.773  27.427   2.677  0.1461 -0.2698 -0.1422
    1W        W38709  16.076  25.383   1.976 -0.2601 -0.3729 -0.1374
    1W        W38710   8.629   2.173   8.171  0.1007  0.1242  0.1211
    1W        W38711  24.282  13.322   0.486 -0.1559  0.1010  0.1824
    1W        W38712  16.471  26.937   2.245 -0.0486  0.0249  0.0379
    1W        W38713  19.417  28.214   8.039 -0.4177  0.1992  0.2903
    1W        W38714   9.424  18.366   6.986 -0.1364  0.2523  0.0835
    1W        W38715   3.701  22.417   5.954  0.2792  0.0747  0.0461
    1W        W38716  26.541  11.444   6.438  0.1125 -0.0560 -0.0991
    1W        W38717  17.320   8.780   8.488 -0.2686  0.0909  0.2985
    1W        W38718   5.656  12.059   7.955  0.0478  0.0040 -0.0058
    1W        W38719   2.159  29.231   2.404  0.3876  0.1370  0.2195
    1W        W38720  20.550  29.029   8.202  0.0004  0.0163  0.0712
    1W        W38721  16.475   7.733   7.238 -0.0500  0.0996  0.0699
    1W        W38722   1.894   4.716   8.538 -0.2358 -0.1996  0.1473
    1W        W38723   0.313   6.444   9.074 -0.0758  0.5176 -0.0438
    1W        W38724   2.396  26.417   7.146  0.1541  0.0236 -0.0912
    1W        W38725  24.959   3.317   6.960  0.2005  0.2085 -0.1971
    1W        W38726  27.345  25.340   1.988 -0.2734  0.1320  0.1725
    1W        W38727  11.342  22.240   8.468  0.2946 -0.1846 -0.0093
    1W        W38728   3.986  15.525   7.640  0.0931  0.1450  0.0173
    1W        W38729  17.962   2.897   7.608 -0.0780 -0.2353 -0.4196
    1W        W38730  28.045   5.976   5.986 -0.0391  0.1751  0.0141
    1W        W38731  21.308  29.046   2.533 -0.0523  0.1076  0.1329
    1W        W38732  20.121  29.069   9.490 -0.0979 -0.1630 -0.0597
    1W        W38733  23.946  28.870   6.494 -0.3025 -0.0883 -0.0665
    1W        W38734   0.814   1.978   1.674  0.2286  0.1212 -0.1574
    1W        W38735  27.302  21.040   0.441  0.2726  0.1275  0.1398
    1W        W38736   9.814  24.423   1.551 -0.0708 -0.3753 -0.2514
    1W        W38737  26.676  25.164   2.647  0.1564 -0.1898 -0.0885
    1W        W38738   5.581   9.739   9.184  0.0459  0.0990 -0.1193
    1W        W38739  19.100  21.872   0.451  0.1134 -0.1557  0.2142
    1W        W38740   3.642  17.318   0.518 -0.0364  0.0100  0.0119
    1W        W38741  11.939  18.874   7.749  0.1286 -0.0850  0.0767
    1W        W38742  15.407  21.717   2.160  0.0194 -0.1747 -0.1342
    1W        W38743   0.561   1.662   7.488  0.0174 -0.0771  0.3087
    1W        W38744   4.217   0.665   7.191 -0.0555 -0.0464  0.1201
    1W        W38745  26.742   1.974   1.741  0.0810 -0.0170 -0.0133
    1W        W38746  15.950  26.674   9.183  0.1470 -0.0005 -0.2150
    1W        W38747  10.223  16.838   7.484  0.0384 -0.2862 -0.3270
    1W        W38748   9.523  28.720   8.003  0.0936 -0.1898  0.0645
    1W        W38749  14.868   4.444   9.511  0.2208  0.3298  0.2160
    1W        W38750  14.815  12.628   1.981 -0.0446 -0.0519  0.0256
    1W        W38751   4.132  28.396   1.038  0.1003  0.0697  0.0367
    1W        W38752  18.249   7.072   7.978  0.0710  0.3185  0.0381
    1W        W38753   8.959  13.152   8.226  0.0934  0.0442  0.2466
    1W        W38754  14.512  16.528   1.224  0.0773 -0.3075  0.2134
    1W        W38755   8.753  27.883   0.092  0.0418  0.0332 -0.4630
    1W        W38756  20.281  20.394   1.096 -0.0475 -0.0570 -0.1474
    1W        W38757   1.162  22.399   9.497 -0.2656 -0.1025 -0.1264
    1W        W38758   1.351  27.682   9.223  0.0828 -0.0339 -0.0971
    1W        W38759   0.438   6.947   1.838 -0.0113 -0.1839  0.0017
    1W        W38760   7.219  13.708   8.404 -0.0874  0.2651  0.0892
    1W        W38761   2.031   5.814   2.550  0.0393  0.0345  0.1885
    1W        W38762   2.535   2.239   1.989  0.1602  0.0803 -0.1370
    1W        W38763  26.354   8.964   9.399  0.1484  0.0491  0.0392
    1W        W38764   7.362  10.139   1.227  0.0914 -0.1082 -0.0281
    1W        W38765   8.007  28.880   1.244  0.0906  0.0883  0.0988
    1W        W38766  14.530  12.682   9.416  0.0879 -0.0625  0.2701
    1W        W38767  25.225   7.292   8.542 -0.0856  0.1281  0.0146
    1W        W38768  13.970  14.170   1.279  0.0759 -0.0924 -0.2063
    1W        W38769  10.230  20.438   2.427  0.1956 -0.0513  0.3877
    1W        W38770  23.678  26.194   1.183  0.0600 -0.0679 -0.1591
    1W        W38771  14.669  13.663   1.345  0.0128 -0.2532 -0.1209
    1W        W38772  21.070   7.943   2.311  0.4965 -0.0593  0.0174
    1W        W38773   2.217  13.087   2.656  0.1537  0.3400 -0.2766
    1W        W38774   5.690   0.672   7.475  0.3705  0.0608 -0.3505
    1W        W38775  14.578  20.822   1.889  0.3472  0.0239  0.3196
    1W        W38776  17.124  15.490   2.041 -0.1788  0.1194  0.0499
    1W        W38777  17.426  23.424   8.139  0.0832 -0.2857 -0.0090
    1W        W38778  16.382  22.642   1.225 -0.0645 -0.0035  0.3001
    1W        W38779   7.947  28.495   7.189 -0.1107  0.0121 -0.0622
    1W        W38780  24.053  23.588   8.925 -0.2816 -0.2646  0.1215
    1W        W38781  27.535  20.946   8.247 -0.2539 -0.1467 -0.0987
    1W        W38782   0.846   3.699   6.394 -0.0159 -0.1663 -0.1201
    1W        W38783  22.049   1.402   1.284 -0.2031 -0.0222  0.0064
    1W        W38784  19.990  14.729   6.801 -0.1001  0.3068 -0.2222
    1W        W38785  22.281   4.741   8.149 -0.3534 -0.2078  0.1156
    1W        W38786  21.029  20.509   7.351  0.3330  0.2010  0.0583
    1W        W38787   9.979   5.855   8.993 -0.0604  0.0441  0.0334
    1W        W38788  27.301  26.323   7.237  0.1557  0.0310  0.1484
    1W        W38789  29.083  10.363   6.400  0.0730  0.0731  0.1331
    1W        W38790  15.289  14.683   2.474 -0.2382  0.0013  0.2780
    1W        W38791  15.055   5.027   1.127  0.1987  0.0924  0.6745
    1W        W38792   4.900  23.605   7.289  0.1506  0.3409  0.2284
    1W        W38793   3.359   1.898   1.269  0.0213 -0.0590  0.0506
    1W        W38794  13.578   5.369   7.845 -0.2091  0.4204 -0.2321
    1W        W38795  14.628   0.986   2.815 -0.1211 -0.0426  0.0669
    1W        W38796  10.825  25.097   7.595  0.0192  0.0640  0.0034
    1W        W38797  27.987   4.735   2.309  0.0374  0.2709  0.0038
    1W        W38798  21.397   7.221   8.956 -0.2566 -0.2384  0.2523
    1W        W38799  18.458  27.041   1.649 -0.1199  0.4591  0.0108
    1W        W38800  13.507  15.262   9.559 -0.0214  0.0057  0.2918
    1W        W38801   4.639  25.600   8.523 -0.2495 -0.1043  0.1769
    1W        W38802   8.614  13.940   8.197  0.0955 -0.3911  0.0362
    1W        W38803  14.987   9.515   2.923 -0.0163  0.0860  0.0045
    1W        W38804   5.683  24.124   8.986  0.1780 -0.1192  0.2246
    1W        W38805  24.522  16.608   9.454 -0.0493  0.1730  0.1152
    1W        W38806   2.464  14.156   9.058  0.2691 -0.0350 -0.0667
    1W        W38807   0.168  18.038   1.083 -0.0621  0.1509  0.4260
    1W        W38808  20.440  27.059   2.307  0.0885  0.1937 -0.0067
    1W        W38809   1.380  24.549   7.698 -0.0224 -0.1804  0.2521
    1W        W38810  23.191   2.155   2.524 -0.0687 -0.4502 -0.3412
    1W        W38811  10.363  19.486   7.518  0.0936  0.2380  0.0953
    1W        W38812  26.276  13.094   0.912 -0.0043  0.0188  0.0325
    1W        W38813  11.712  15.866   7.429  0.3060  0.0138 -0.1076
    1W        W38814   6.876  18.180   2.049  0.3434  0.0403  0.0035
    1W        W38815  27.504  17.030   6.647 -0.0309  0.3584 -0.0001
    1W        W38816  22.058   2.581   1.589 -0.0388 -0.1155  0.0597
    1W        W38817  24.751  26.433   6.357  0.2547 -0.0776  0.2074
    1W        W38818  23.082   4.192   2.450  0.1479  0.4589 -0.3566
    1W        W38819  25.115  14.620   6.411  0.1054  0.1269  0.0155
    1W        W38820   1.860  13.624   7.495  0.1213  0.1967  0.3651
    1W        W38821   7.520  26.656   6.765 -0.0492  0.2227  0.3807
    1W        W38822  18.590  26.229   8.854  0.0324  0.1553 -0.0646
    1W        W38823  28.498  14.867   7.910  0.3238  0.0013  0.0259
    1W        W38824  19.446  18.280   9.333 -0.1945  0.1437  0.2206
    1W        W38825  11.279  15.845   8.831  0.2420  0.0817  0.0405
    1W        W38826  24.015   5.487   0.482  0.1776  0.0100  0.0331
    1W        W38827  11.368  12.036   6.631 -0.2757  0.1825  0.0207
    1W        W38828  25.526  10.301   2.041  0.0236  0.1468 -0.0094
    1W        W38829  13.444  18.768   8.769  0.0969  0.0633  0.0589
    1W        W38830  26.382  14.656   1.028  0.1189  0.1591  0.0539
    1W        W38831  21.831  17.157   0.887 -0.6169 -0.0299 -0.1582
    1W        W38832  23.478  27.037   7.534 -0.0898  0.0720  0.0999
    1W        W38833   5.221   5.142   3.285  0.0912  0.0450  0.1819
    1W        W38834   1.528  24.170   9.165  0.0759 -0.4373 -0.1064
    1W        W38835  25.944  23.422   0.445 -0.0324  0.0713 -0.0253
    1W        W38836  28.795   1.258   7.952  0.2787 -0.1026 -0.1988
    1W        W38837  28.143  13.995   6.147 -0.1000 -0.1509  0.2546
    1W        W38838   3.407   3.334   8.959 -0.1353  0.0915  0.2653
    1W        W38839  10.186  22.759   7.176  0.2998 -0.1005  0.3343
    1W        W38840   9.465  19.336   8.432 -0.1356 -0.5163 -0.4110
    1W        W38841   4.731  25.577   0.131  0.0922 -0.0761 -0.0980
    1W        W38842  11.056   5.036   3.034  0.1521 -0.1872  0.0328
    1W        W38843  24.812  23.647   6.894 -0.1526 -0.3050 -0.2252
    1W        W38844  17.537  27.059   8.997  0.0700 -0.0339 -0.0957
    1W        W38845   9.966  21.255   2.175  0.2404 -0.1794  0.0619
    1W        W38846  24.955  11.980   8.761 -0.1112  0.1444 -0.5925
    1W        W38847   7.393  26.687   2.550 -0.1659  0.1032  0.0199
    1W        W38848  20.641  12.022   9.680  0.3666  0.1946 -0.4017
    1W        W38849  24.151  16.841   6.870  0.2051 -0.0314  0.1967
    1W        W38850   2.143   5.412   6.918  0.0022  0.0127 -0.0438
    1W        W38851  11.661  29.094   9.659 -0.3095  0.2516 -0.0005
    1W        W38852  28.110  10.689   7.122  0.0644 -0.1594 -0.3531
    1W        W38853   5.555  26.580   2.485 -0.0445  0.3144  0.0125
    1W        W38854  27.581   9.803   9.383  0.0171 -0.1099  0.1867
    1W        W38855  11.002  10.718   8.006 -0.0226  0.1448  0.1094
    1W        W38856   1.283  20.118   9.188  0.0927 -0.1733 -0.0567
    1W        W38857  17.037  15.833   8.890 -0.2915  0.1936 -0.2961
    1W        W38858  20.738   0.572   1.236  0.1565 -0.3287 -0.2454
    1W        W38859   3.099  28.686   0.158 -0.2057  0.1334 -0.2738
    1W        W38860   2.489  22.842   9.612 -0.1217  0.2629 -0.2048
    1W        W38861   1.845  17.610   6.773  0.0257 -0.0807  0.2691
    1W        W38862   6.374  28.801   0.982 -0.0372 -0.0442  0.0526
    1W        W38863  27.235  20.137   8.495  0.0520 -0.1047 -0.0700
    1W        W38864  26.036  19.347   2.216  0.2305 -0.1999 -0.0301
    1W        W38865  19.055  19.372   2.860  0.0896 -0.0413  0.0218
    1W        W38866  20.160   0.155   7.096 -0.0953 -0.0606 -0.3465
    1W        W38867   5.273  28.586   7.750 -0.0029  0.1638  0.2904
    1W        W38868   1.232  13.007   7.262 -0.1990  0.0113 -0.0859
    1W        W38869  27.008   9.785   2.936  0.0247  0.2137 -0.2092
    1W        W38870   7.615  13.437   8.215  0.0372 -0.0558 -0.1611
    1W        W38871   1.673  10.897   1.595 -0.3179 -0.0709 -0.0805
    1W        W38872   7.880  22.611   7.105  0.2952 -0.1545 -0.2335
    1W        W38873  23.230  11.339   0.838  0.0161  0.0524 -0.1790
    1W        W38874   0.213  21.071   7.484 -0.1364  0.2010 -0.0092
    1W        W38875  15.063  23.448   2.882 -0.1093  0.0181  0.0189
    1W        W38876   0.328  25.476   9.042 -0.0746 -0.0928 -0.1049
    1W        W38877   6.645   3.930   9.380  0.2212  0.0125  0.1144
    1W        W38878  12.550   2.018   9.299  0.0618 -0.2496 -0.1229
    1W        W38879  10.977  15.171   1.777  0.1877 -0.0142 -0.4503
    1W        W38880  25.554  12.460   1.504  0.0942 -0.0182  0.1583
    1W        W38881  13.582  21.858   8.876 -0.1104  0.3567 -0.1749
    1W        W38882  15.481  15.683   2.027  0.1650 -0.0612 -0.1057
    1W        W38883   1.438   6.368   5.685 -0.0421  0.3250  0.0505
    1W        W38884  27.887  13.093   7.425 -0.1708  0.1623  0.0730
    1W        W38885  26.704   3.075   8.054 -0.0707 -0.1565 -0.1037
    1W        W38886  24.196  27.668   1.758 -0.1290  0.2585  0.1223
    1W        W38887   8.300   7.123   1.268 -0.6418  0.0167 -0.0792
    1W        W38888  10.490  16.593   0.578  0.0366 -0.2387 -0.0562
    1W        W38889   4.688  14.614   3.031  0.1800  0.2637  0.1943
    1W        W38890   0.926   6.441   7.493  0.0592  0.0223  0.0905
    1W        W38891  29.096  10.120   7.399 -0.2208 -0.2352  0.0573
    1W        W38892  27.670  12.180   2.767  0.4206 -0.0947  0.1074
    1W        W38893  12.890   5.547   3.979 -0.0282  0.0319  0.3210
    1W        W38894  28.412   1.098   1.256  0.0440 -0.1629  0.0643
    1W        W38895  16.219   4.641   0.530  0.3488 -0.2384  0.1646
    1W        W38896   6.471  25.524   2.136 -0.0874  0.1448 -0.1349
    1W        W38897  15.109   5.356   7.483  0.0309 -0.2626  0.2432
    1W        W38898  20.138  23.359   7.194  0.3064  0.2426 -0.0594
    1W        W38899  21.092   1.722   2.318 -0.2095 -0.3482 -0.0597
    1W        W38900   0.157   2.120   3.474  0.1155  0.4993  0.0070
    1W        W38901   4.015  23.190   5.964  0.2036 -0.1290 -0.0788
    1W        W38902   8.096   9.742   1.337  0.0887  0.0267  0.2091
    1W        W38903  17.826  11.186   8.244 -0.2091  0.0326 -0.2263
    1W        W38904  11.743  10.846   2.340 -0.1780 -0.0887 -0.0603
    1W        W38905  18.690  12.789   9.562  0.0212 -0.0974  0.1306
    1W        W38906   7.659  28.999   0.914  0.0573  0.2176  0.0149
    1W        W38907  17.173   4.041   8.036  0.1053  0.1283 -0.0715
    1W        W38908  14.775   1.125   7.948 -0.1538  0.2806  0.0869
    1W        W38909  16.851   2.532   3.103 -0.2021 -0.1612  0.1117
    1W        W38910   9.910   8.758   7.471 -0.2224 -0.0697 -0.1000
    1W        W38911  27.801   6.462   2.370  0.1677  0.0139 -0.0745
    1W        W38912  29.132  19.427   0.309  0.0015  0.0386 -0.0461
    1W        W38913  26.965   9.781   2.139  0.2788  0.3327  0.0936
    1W        W38914  21.043  26.036   9.536  0.5218 -0.2305 -0.0628
    1W        W38915  28.215  22.552   8.770 -0.2471 -0.0718  0.1483
    1W        W38916  19.986   4.340   1.867  0.0814  0.2944 -0.0603
    1W        W38917   8.080  25.622   9.295 -0.0979  0.1780  0.0215
    1W        W38918  21.986  10.143   8.603 -0.1189 -0.0339 -0.0060
    1W        W38919   0.662  16.675   0.111 -0.0533  0.0179  0.2481
    1W        W38920  26.890  16.194   6.542 -0.0252  0.0576  0.1071
    1W        W38921   8.765   6.027   6.595  0.1457 -0.0536  0.2426
    1W        W38922  20.179  25.600   0.561 -0.0106  0.0698 -0.0831
    1W        W38923  14.079   1.847   7.665 -0.1724  0.1811  0.1981
    1W        W38924   7.201  16.579   0.128 -0.0027 -0.2307  0.0377
    1W        W38925   8.497  19.050   6.290 -0.0387  0.2974  0.0709
    1W        W38926  15.383  23.492   2.361 -0.1104 -0.2491  0.0632
    1W        W38927  19.397  28.000   0.654  0.3300  0.2179 -0.0136
    1W        W38928   2.400  10.138   5.779 -0.1865 -0.2600  0.2565
    1W        W38929  15.816   6.473   0.288  0.1146 -0.0446 -0.1322
    1W        W38930   9.483  16.885   7.389  0.1299  0.1935  0.0020
    1W        W38931   2.083   1.724   8.254 -0.1531 -0.0210  0.2878
    1W        W38932  14.791   8.553   3.055  0.0270  0.3580  0.0022
    1W        W38933   3.179   4.512   7.834 -0.4887 -0.2741 -0.3020
    1W        W38934  19.580  21.962   0.274 -0.2558  0.1638 -0.0053
    1W        W38935  14.722   1.283   0.595  0.0003  0.2328  0.0930
    1W        W38936   0.400  27.352   2.430  0.1500 -0.0887 -0.0767
    1W        W38937   0.045   7.411   9.049 -0.0249 -0.0380  0.1810
    1W        W38938  13.224  19.204   0.277 -0.1068 -0.1904  0.0023
    1W        W38939   6.865   3.640   7.553 -0.3207  0.0305  0.2327
    1W        W38940  14.999  29.232   7.997 -0.0961  0.0088  0.2633
    1W        W38941   5.611   3.572   7.986 -0.0121 -0.1513 -0.0606
    1W        W38942  14.027  22.774   0.915 -0.2100 -0.0345  0.2630
    1W        W38943   6.924   3.067   7.635  0.2724 -0.2131 -0.1364
    1W        W38944   8.342  16.801   0.168 -0.0492  0.0441  0.1677
    1W        W38945  26.414   2.671   7.933  0.0046  0.2000  0.1234
    1W        W38946   0.884   2.277   8.111  0.1362  0.0108  0.0660
    1W        W38947   7.493   5.136   2.424  0.0816 -0.0919  0.0643
    1W        W38948  28.916   3.215   2.214 -0.2786 -0.0732 -0.0772
    1W        W38949  18.280  28.402   6.802  0.2260  0.3767  0.1789
    1W        W38950  20.330  29.103   7.672 -0.0535  0.0946 -0.0527
    1W        W38951   0.574  14.960   8.311  0.3306  0.1254 -0.0847
    1W        W38952  13.465  28.078   8.673  0.1770  0.2338 -0.0807
    1W        W38953  24.542  23.248   2.213 -0.0700  0.1080 -0.1659
    1W        W38954  19.813  27.750   7.286 -0.2211 -0.1295 -0.0513
    1W        W38955  25.935  10.162   8.855 -0.1535 -0.1169  0.0463
    1W        W38956  19.060  21.944   3.069 -0.1748 -0.2143 -0.0736
    1W        W38957  20.459   5.082   9.276 -0.0788  0.0240 -0.0662
    1W        W38958  11.769  14.798   0.512 -0.2069  0.0914  0.1563
    1W        W38959   2.150   6.501   6.796  0.1044  0.0492  0.1329
    1W        W38960  22.385   7.529   7.794  0.0731 -0.1909  0.0076
    1W        W38961  15.265   6.715   0.128  0.0245 -0.1083  0.1399
    1W        W38962   5.708  26.491   1.991 -0.1443 -0.1809  0.0251
    1W        W38963   7.855  24.167   8.225  0.2798 -0.1971 -0.0657
    1W        W38964  11.087  18.424   8.283  0.2034  0.1042  0.3636
    1W        W38965   4.577  19.907   0.157 -0.1483 -0.2241 -0.1613
    1W        W38966  11.847   4.852   2.219  0.3247 -0.0959 -0.0945
    1W        W38967  16.248  19.893   8.532 -0.1947 -0.0657 -0.0780
    1W        W38968  17.235  22.287   2.075 -0.0053  0.1252  0.1445
    1W        W38969  19.873  10.396   9.154 -0.0470  0.1812  0.0641
    1W        W38970  13.132   4.917   1.669 -0.1198 -0.0421 -0.1060
    1W        W38971   3.778  16.581   2.204  0.0528 -0.0564 -0.2103
    1W        W38972  12.226   1.957   7.754 -0.0048 -0.2964  0.2623
    1W        W38973  10.998   1.874   9.225 -0.1536  0.0061 -0.1509
    1W        W38974   8.578  11.470   9.645 -0.1581  0.1428  0.1222
    1W        W38975  21.957   1.635   0.889  0.2755  0.0952 -0.1710
    1W        W38976  26.929  29.256   1.370  0.2145 -0.2290 -0.2527
    1W        W38977  18.459  12.855   8.222 -0.0189  0.0431  0.2914
    1W        W38978  23.841  23.831   0.940 -0.0594  0.0379  0.0289
    1W        W38979  28.202  17.947   9.651  0.0578 -0.2006  0.1534
    1W        W38980   0.308  14.870   8.809 -0.0372  0.4113  0.0187
    1W        W38981   1.593  25.619   1.398 -0.0439  0.0755  0.0657
    1W        W38982  26.444   7.240   2.567 -0.1664  0.1074  0.0534
    1W        W38983  25.362   8.912   0.077 -0.1509 -0.0575 -0.3619
    1W        W38984  21.350  27.123   3.538  0.1432  0.2823  0.1919
    1W        W38985  24.913  16.839   7.745  0.1045  0.1861 -0.0747
    1W        W38986  16.200   6.880   8.141  0.0201  0.2343  0.1792
    1W        W38987  22.249  25.255   8.158  0.0457  0.1188  0.2049
    1W        W38988  27.941  19.109   5.987 -0.0422 -0.2802  0.0415
    1W        W38989   0.188  29.135   6.353 -0.2590  0.0375 -0.0633
    1W        W38990   4.632  18.176   1.698  0.2104 -0.2892  0.0697
    1W        W38991  10.205  12.570   2.694 -0.1162  0.0119  0.0354
    1W        W38992   0.425   2.225   1.817  0.1000  0.2590  0.1335
    1W        W38993   3.888  13.592   7.618 -0.1566 -0.2032 -0.0828
    1W        W38994  10.438  17.454   6.804  0.0737  0.0680 -0.1690
    1W        W38995   5.430  19.128   2.417  0.1399 -0.1486 -0.0842
    1W        W38996  25.000   8.314   7.884  0.0137  0.0159 -0.0510
    1W        W38997   2.440   2.150   1.177 -0.3699  0.0321 -0.1416
    1W        W38998   6.177   1.854   8.588  0.1895 -0.1528  0.1724
    1W        W38999  16.017   4.395   7.721 -0.2005 -0.1059 -0.0418
    1W        W39000  10.242   7.833   2.331 -0.0642  0.0137 -0.3808
    1W        W39001  26.739  20.773   7.556 -0.0685 -0.2931  0.1775
    1W        W39002  13.119  15.168   2.170  0.0358  0.0194  0.2530
    1W        W39003   1.823  12.529   9.032 -0.0854  0.0541 -0.3211
    1W        W39004  22.685   5.834   1.603  0.1377  0.0756 -0.2711
    1W        W39005   1.433  27.093   1.639 -0.0162  0.1258 -0.0287
    1W        W39006  27.807  19.195   1.901 -0.2353  0.0853 -0.3034
    1W        W39007   0.153   6.547   2.236 -0.0253 -0.0138  0.2210
    1W        W39008   1.691  19.411   1.746 -0.0652 -0.0734  0.0353
    1W        W39009  24.289   7.235   7.770 -0.2444 -0.0846  0.2951
    1W        W39010   3.340  14.298   6.731  0.0546 -0.0493  0.1180
    1W        W39011   3.865   0.981   9.493  0.3136  0.1412  0.0360
    1W        W39012  13.402  13.436   9.132  0.0424 -0.3162  0.0020
    1W        W39013  20.485  20.425   2.586  0.1752 -0.1977 -0.0063
    1W        W39014   2.988  12.835   1.135 -0.0792 -0.3661 -0.0646
    1W        W39015   2.218   0.317   5.670  0.0986 -0.0210 -0.1584
    1W        W39016   6.499  28.691   7.665  0.1164  0.0275 -0.0489
    1W        W39017  26.330  23.595   7.803 -0.0909  0.0127  0.0337
    1W        W39018  12.906  17.770   1.857 -0.0220 -0.1070 -0.0640
    1W        W39019   4.778  23.881   8.989 -0.3806  0.0280 -0.1066
    1W        W39020   7.012  10.977   7.797 -0.1728  0.1544  0.1693
    1W        W39021   4.172  25.921   8.593 -0.3207 -0.4065  0.1553
    1W        W39022   7.225  20.152   0.837 -0.0037  0.1116 -0.0881
    1W        W39023  25.555  19.239   2.125  0.0926  0.3448 -0.3213
    1W        W39024  25.169  23.642   1.006  0.1516 -0.0160  0.2887
    1W        W39025   7.903   6.196   3.464 -0.1917  0.2961 -0.0790
    1W        W39026  13.915   4.635   0.834  0.0208 -0.0586  0.0833
    1W        W39027  27.235  17.762   8.834  0.1887 -0.0384 -0.1294
    1W        W39028  18.177  21.404   0.375 -0.1970  0.0672  0.3925
    1W        W39029  21.375   4.455   1.843 -0.2472 -0.0072 -0.2547
    1W        W39030  13.736   2.923   7.757 -0.1828 -0.0865  0.1120
    1W        W39031   1.334  18.647   0.633  0.1888 -0.0699  0.1870
    1W        W39032  18.686  13.493   1.250  0.1791 -0.1828 -0.2519
    1W        W39033  20.776   4.502   0.929  0.1925 -0.0222 -0.1216
    1W        W39034  23.166  18.996   7.264  0.1278 -0.0355  0.3147
    1W        W39035  17.530   7.152   7.723  0.1755  0.2496  0.0609
    1W        W39036  20.987  25.959   3.150  0.1865  0.1408 -0.1464
    1W        W39037   8.016  11.644   2.202  0.2356 -0.1128 -0.0906
    1W        W39038  13.299   0.442   1.312 -0.0314  0.1064  0.2415
    1W        W39039   8.370  15.530   7.424  0.3228 -0.4232  0.1766
    1W        W39040  15.416   4.661   8.297  0.0557 -0.1229  0.3234
    1W        W39041  10.155  25.990   7.848 -0.0865  0.3207 -0.1998
    1W        W39042   1.604   6.681   6.646 -0.2524 -0.1258 -0.0596
    1W        W39043  12.659   8.877   1.050 -0.0138 -0.0911 -0.2551
    1W        W39044  12.580   8.086   9.593 -0.0104 -0.0282  0.3360
    1W        W39045  23.002  21.087   8.333  0.0107 -0.1662  0.0622
    1W        W39046   5.024   7.464   9.594  0.1299  0.1341 -0.2052
    1W        W39047   0.525  24.413   0.243  0.2917 -0.3680 -0.0517
    1W        W39048  28.133   5.612   1.006 -0.2005 -0.1698 -0.0339
    1W        W39049  18.553  13.585   8.156 -0.2459  0.0277  0.3821
    1W        W39050  29.111  27.531   0.059  0.1491 -0.2677  0.0640
    1W        W39051  28.849   9.377   8.197 -0.0342  0.0098  0.1770
    1W        W39052  11.367   0.570   1.816 -0.1274 -0.0870 -0.0609
    1W        W39053  12.114  14.221   7.452 -0.3818  0.0186  0.1747
    1W        W39054  23.378  23.593   0.235  0.1863  0.1291  0.0639
    1W        W39055  15.631  15.527   7.237 -0.1450  0.1582  0.1712
    1W        W39056  23.757   3.139   2.693  0.0819 -0.1761  0.2295
    1W        W39057   7.731  12.251   3.081  0.1485  0.2761 -0.0141
    1W        W39058  24.014   6.201   6.397  0.0310 -0.2134 -0.0494
    1W        W39059   1.786   8.922   9.337 -0.0762 -0.2481  0.0772
    1W        W39060  27.822   3.886   2.431 -0.0278 -0.2325 -0.2009
    1W        W39061  22.847   7.811   2.331  0.1418  0.1081  0.0764
    1W        W39062  15.790   6.348   3.121  0.0307 -0.0659  0.0498
    1W        W39063   4.918   9.758   6.900  0.0770  0.1898  0.1172
    1W        W39064  11.530  24.362   0.373 -0.1285 -0.0420 -0.1488
    1W        W39065  18.301   1.623   7.003 -0.2657  0.1214  0.0354
    1W        W39066  18.150  28.236   8.931  0.3187 -0.6214 -0.3443
    1W        W39067  20.628  29.348   7.245 -0.4308  0.1184  0.0056
    1W        W39068  24.689  18.934   0.795  0.2290 -0.0464 -0.0812
    1W        W39069  10.679   3.434   2.244 -0.0659  0.2333 -0.0700
    1W        W39070  27.093  24.244   0.469  0.3110  0.1336 -0.0385
    1W        W39071  26.624  27.645   8.524  0.1033  0.1422  0.0431
    1W        W39072  20.218  29.050   0.435  0.0809 -0.0546  0.2405
    1W        W39073  22.280  20.978   7.783 -0.3675 -0.4803 -0.0334
    1W        W39074  26.031  16.983   1.207 -0.0062 -0.2603  0.0437
    1W        W39075  12.163  12.482   0.005  0.1115  0.2610  0.1648
    1W        W39076   7.056  21.011   0.920 -0.3970 -0.1698 -0.0589
    1W        W39077   0.874   4.055   0.358 -0.0464  0.1249 -0.1686
    1W        W39078   4.701  20.711   1.955  0.2175  0.1480  0.3984
    1W        W39079   0.121  18.046   1.575  0.1894  0.0379  0.0019
    1W        W39080  10.671   6.203   8.988 -0.1259  0.2701 -0.2186
    1W        W39081  17.258   7.333   8.156 -0.1387 -0.1308 -0.0041
    1W        W39082   5.405  17.840   2.213 -0.0339  0.0762 -0.3002
    1W        W39083  10.232  20.600   8.239  0.0387 -0.1211  0.1952
    1W        W39084   7.764  23.675   7.381 -0.0346  0.4831  0.0974
    1W        W39085   2.882  21.022   1.803  0.0825 -0.0058 -0.4378
    1W        W39086  15.454  14.506   7.755 -0.2288 -0.0588 -0.0588
    1W        W39087  14.399  22.759   2.438  0.1970 -0.0649 -0.2083
    1W        W39088  25.136  18.129   8.704 -0.0303 -0.2892  0.2117
    1W        W39089  14.362   5.654   4.398  0.0538 -0.0775  0.1248
    1W        W39090   4.486   9.069   7.200 -0.1940 -0.2699 -0.5258
    1W        W39091  17.428  26.794   0.985  0.0142  0.2105  0.2500
    1W        W39092  17.552   2.765   2.128  0.0874  0.0416 -0.1885
    1W        W39093  23.573  28.787   1.150  0.1724  0.1408  0.0741
    1W        W39094   8.331  15.882   9.265  0.0987  0.1598 -0.0173
    1W        W39095  10.852   1.926   7.187 -0.0207  0.0599  0.0552
    1W        W39096  23.876  11.216   6.725  0.0865 -0.0187 -0.2130
    1W        W39097  24.353   8.548   0.189  0.0496  0.0586  0.0351
    1W        W39098  21.568  20.732   7.237 -0.2796  0.0805  0.0431
    1W        W39099   4.387  17.898   8.663  0.1660  0.1927 -0.0834
    1W        W39100  25.636   9.678   0.378 -0.1314 -0.0140 -0.0357
    1W        W39101  27.748  24.649   9.108  0.0176 -0.1172  0.0567
    1W        W39102   2.394   4.051   9.359 -0.2715 -0.2381 -0.0052
    1W        W39103  19.096   7.382   8.054  0.0662 -0.2871 -0.1166
    1W        W39104  11.755  13.583   1.347 -0.1936  0.0769  0.1532
    1W        W39105  19.216   3.292   2.434  0.0847  0.1037  0.2321
    1W        W39106   4.135  15.801   9.563  0.0520  0.0712  0.1857
    1W        W39107   8.596  28.352   3.486 -0.0552  0.1491  0.0615
    1W        W39108   2.013  11.096   1.925 -0.0494  0.0137 -0.2493
    1W        W39109  28.577  29.124   9.239  0.0069  0.0339  0.0638
    1W        W39110   0.089  24.494   2.333  0.1014 -0.1359 -0.0803
    1W        W39111  16.062  29.323   0.357 -0.1523 -0.0132  0.0982
    1W        W39112  27.292  16.328   8.246  0.4661 -0.2623 -0.3484
    1W        W39113  28.997  16.779   9.528  0.1725 -0.0167 -0.0257
    1W        W39114   5.605  16.894   1.802 -0.1591  0.1667  0.1435
    1W        W39115  18.571  15.995   7.635  0.1208 -0.2199 -0.1065
    1W        W39116  11.124   8.154   7.946 -0.0936 -0.2674 -0.1961
    1W        W39117   9.057  26.284   0.993 -0.0025 -0.2255  0.3209
    1W        W39118  12.951  14.420   8.108 -0.1298 -0.0795 -0.1911
    1W        W39119  20.780  27.110   6.669 -0.1199  0.1311  0.0295
    1W        W39120   5.081   5.207   8.450  0.1185  0.0218 -0.2683
    1W        W39121   9.442   5.249   9.088  0.0477 -0.1013  0.3887
    1W        W39122   5.198  23.969   1.205 -0.2104  0.0571 -0.1524
    1W        W39123   6.846  25.656   7.249  0.1858  0.0210 -0.0850
    1W        W39124   5.213  14.157   6.130  0.2570 -0.0216  0.1930
    1W        W39125  14.057   8.162   3.412 -0.0079 -0.2740  0.1334
    1W        W39126  26.101  19.684   0.005 -0.0389  0.1125  0.1259
    1W        W39127  16.628  29.081   3.531 -0.2102 -0.0197  0.2474
    1W        W39128   0.015   3.925   1.821  0.1403 -0.0310 -0.4763
    1W        W39129  13.823  21.763   7.894 -0.0086 -0.2660 -0.0262
    1W        W39130  15.498  20.560   1.526 -0.0550 -0.1634  0.0197
    1W        W39131  28.870   3.114   7.734  0.3033  0.0003  0.3049
    1W        W39132  11.003  27.765   3.512 -0.1099 -0.0358  0.1706
    1W        W39133   8.704  12.134   1.382  0.1783 -0.1489 -0.2030
    1W        W39134  17.500  16.288   2.338  0.0325 -0.0684 -0.1207
    1W        W39135  13.126   9.159   8.424 -0.1050 -0.0886  0.1154
    1W        W39136   1.700   1.006   1.779  0.3616 -0.1700 -0.1386
    1W        W39137  26.261  23.211   8.235 -0.0944 -0.2276  0.0308
    1W        W39138  16.760  25.400   3.669  0.0225  0.1780  0.1269
    1W        W39139   3.591  27.125   6.845  0.0334 -0.1472  0.1316
    1W        W39140  27.118  17.456   2.216 -0.0462  0.1283 -0.0875
    1W        W39141  20.321   2.222   7.553 -0.2228  0.1672  0.0419
    1W        W39142  22.529  13.988   2.023 -0.1094 -0.1682 -0.0755
    1W        W39143   2.566  14.186   5.969  0.1441  0.0285 -0.4689
    1W        W39144  12.783  27.464   3.490 -0.1085 -0.0895 -0.0647
    1W        W39145  26.312  15.372   8.592 -0.0533 -0.1842  0.1072
    1W        W39146   4.566  11.744   0.787  0.1121  0.2285 -0.1528
    1W        W39147   1.034  13.046   1.237  0.2251  0.0473  0.2296
    1W        W39148   3.144  15.103   8.444  0.0414  0.1885 -0.1612
    1W        W39149   1.544   4.219   7.864  0.1302  0.0510  0.0493
    1W        W39150  12.286  28.718   0.833  0.1642  0.0354  0.1143
    1W        W39151  11.847   9.714   1.863  0.1428  0.1122 -0.1921
    1W        W39152   7.045   1.955   8.616 -0.2632  0.0260  0.1665
    1W        W39153   9.955  20.250   7.783 -0.0816  0.2092 -0.4849
    1W        W39154  11.368   1.865   8.888  0.0257 -0.1082  0.1252
    1W        W39155  13.696  14.574   7.598 -0.0800 -0.0078 -0.0631
    1W        W39156   4.040  19.741   9.657  0.1584 -0.1724 -0.0529
    1W        W39157  14.728  11.689   9.306 -0.0336  0.0491 -0.0915
    1W        W39158  25.247  14.772   1.488 -0.0603 -0.0405  0.2059
    1W        W39159  10.942   2.736   7.997  0.0524  0.1805 -0.0548
    1W        W39160  28.231   2.574   6.812  0.0197 -0.1160 -0.0709
    1W        W39161  12.576  22.135   0.424 -0.0546 -0.3435 -0.3116
    1W        W39162   1.221  29.233   2.488 -0.1870  0.2338  0.1925
    1W        W39163   5.608   9.915   8.230  0.2217  0.2155  0.1147
    1W        W39164  28.014   1.296   8.174  0.0680 -0.1662 -0.0047
    1W        W39165  28.906  15.073   6.976 -0.2059 -0.1039  0.0284
    1W        W39166  15.798  21.970   9.505 -0.1135  0.0748  0.4908
    1W        W39167   6.931  18.568   7.691 -0.0327  0.1056  0.2554
    1W        W39168  21.409  25.138   0.578  0.1267  0.2447 -0.1278
    1W        W39169  11.816  15.387   7.404  0.1433 -0.2475 -0.1459
    1W        W39170  27.874  16.078   5.852 -0.1129 -0.1718  0.1727
    1W        W39171  14.382   3.150   3.002 -0.2323 -0.1771  0.0941
    1W        W39172   7.954  17.028   9.652 -0.0945 -0.0514 -0.0467
    1W        W39173  25.212  20.553   2.407 -0.0054  0.0908  0.3350
    1W        W39174   2.043  13.536   6.367  0.0290  0.2457 -0.1224
    1W        W39175   7.261  15.685   2.578 -0.0337  0.0103  0.0010
    1W        W39176  13.938  26.824   3.630 -0.1436  0.0870 -0.1312
    1W        W39177  24.649   9.581   0.717 -0.0010 -0.2913 -0.1020
    1W        W39178  17.046  23.017   0.036 -0.2305 -0.2569  0.0229
    1W        W39179   2.482   1.790   1.628  0.1327  0.1305  0.0779
    1W        W39180  25.519   4.218   2.746 -0.0868 -0.0046  0.0178
    1W        W39181  21.606  13.485   8.813  0.1936 -0.1596 -0.1717
    1W        W39182  25.417   2.766   7.653  0.1765 -0.1408 -0.0663
    1W        W39183  26.567   5.162   6.787  0.0096 -0.1481  0.1932
    1W        W39184  17.328  23.529   0.981 -0.1006 -0.0087  0.3335
    1W        W39185   1.840  25.202   9.434  0.0007 -0.1146 -0.0298
    1W        W39186  16.929  12.094   0.281  0.1066 -0.0809  0.0734
    1W        W39187   7.228  16.901   7.937  0.1017 -0.0621 -0.0466
    1W        W39188  17.478  10.825   6.967  0.0423 -0.1371  0.2282
    1W        W39189  27.712  26.168   2.320  0.1921 -0.1189  0.3498
    1W        W39190  14.167   5.379   0.697 -0.1375  0.2237 -0.1411
    1W        W39191   8.293  26.678   9.095 -0.1670  0.1656  0.0658
    1W        W39192   8.275  22.166   1.997  0.1414  0.2018 -0.1558
    1W        W39193  20.198  14.288   0.052  0.0652 -0.0849 -0.1915
    1W        W39194   6.118  20.843   2.456  0.0377 -0.3005 -0.1956
    1W        W39195  11.567  24.769   0.104 -0.2537 -0.0646 -0.0526
    1W        W39196  24.385  27.615   0.762 -0.0306  0.2877  0.2745
    1W        W39197   5.671  18.712   6.014  0.4028  0.0750  0.1430
    1W        W39198  21.137   0.488   7.725 -0.1659  0.1230  0.2192
    1W        W39199  13.680  17.259   8.960  0.2196  0.0421  0.0516
    1W        W39200  28.096   6.508   0.629 -0.5623 -0.1140  0.3446
    1W        W39201  21.071  23.608   7.873 -0.1996  0.0094  0.2633
    1W        W39202  16.216  23.375   1.733  0.1837  0.4292 -0.0086
    1W        W39203  29.220   2.132   0.023 -0.1300  0.0149 -0.1596
    1W        W39204  23.268  21.555   8.280  0.0911 -0.1381  0.0127
    1W        W39205   3.656   4.076   8.606 -0.0001 -0.5159 -0.1089
    1W        W39206  25.065  23.506   0.438  0.1683  0.3921 -0.1189
    1W        W39207  27.741   0.926   6.939 -0.0197 -0.1266 -0.0946
    1W        W39208  22.974   4.747   0.243 -0.0099  0.1462 -0.0102
    1W        W39209  24.590  24.344   1.325  0.1572  0.0110 -0.1299
    1W        W39210  19.791  16.444   1.173  0.0387 -0.0541 -0.0030
    1W        W39211  29.308  25.170   0.107 -0.0324 -0.1841 -0.3754
    1W        W39212   2.650  18.227   7.961 -0.2924  0.0433  0.0707
    1W        W39213   0.048  21.402   0.695 -0.0998 -0.1782 -0.3602
    1W        W39214   2.663  27.219   7.546  0.0133  0.0881 -0.0167
    1W        W39215   1.911  13.651   6.996  0.1741 -0.0528  0.0743
    1W        W39216   3.158   5.006   1.096  0.1375  0.1249 -0.0043
    1W        W39217  26.270  15.818   9.203  0.3296 -0.0769  0.3432
    1W        W39218   5.136  22.259   9.316 -0.0681  0.0219 -0.0424
    1W        W39219  18.776  11.257   7.790 -0.0873 -0.1319 -0.2954
    1W        W39220   7.854  22.997   7.472  0.1326 -0.2618 -0.1814
    1W        W39221   5.566   1.007   8.768  0.2552 -0.2462  0.0193
    1W        W39222   9.650   0.151   0.450 -0.5152 -0.0984  0.3289
    1W        W39223   6.821  24.023   8.999 -0.2314 -0.2814 -0.3385
    1W        W39224   6.771  13.955   6.734 -0.0312  0.1797  0.1243
    1W        W39225  13.255  21.130   0.269  0.0194  0.1609  0.1247
    1W        W39226  18.791  21.944   9.386  0.2094  0.3875 -0.0741
    1W        W39227  18.362  25.232   2.463  0.2752  0.2562 -0.0233
    1W        W39228  13.619  25.450   7.776 -0.0133  0.0406  0.1337
    1W        W39229  27.905   5.535   1.760 -0.0507  0.0215 -0.0080
    1W        W39230  26.322   9.277   0.070 -0.0153 -0.0244  0.0539
    1W        W39231  26.953   2.195   6.697 -0.0678  0.2210  0.0578
    1W        W39232  13.860  11.196   1.014  0.0010  0.1893  0.0803
    1W        W39233  26.159   3.047   7.658 -0.1891  0.1769 -0.0691
    1W        W39234   2.933  10.802   9.126  0.1349  0.0757  0.0866
    1W        W39235  28.360  19.549   8.957 -0.1389 -0.2538  0.1996
    1W        W39236   5.230  15.478   8.597  0.0483  0.1437  0.3861
    1W        W39237  25.825   1.241   7.589  0.3572  0.0837 -0.1819
    1W        W39238  13.163  13.699   8.357  0.0099 -0.1524  0.1035
    1W        W39239  12.242  24.182   2.938 -0.1284 -0.2925  0.2272
    1W        W39240   5.144   2.413   1.178 -0.1399  0.1191 -0.1585
    1W        W39241  28.377   2.117   8.365 -0.1911  0.0755  0.1829
    1W        W39242  28.361  11.350   7.644  0.1098 -0.1285  0.1464
    1W        W39243   6.163  10.327   7.773 -0.0185 -0.0027  0.1371
    1W        W39244  26.541  15.588   2.220 -0.2966  0.1288  0.1987
    1W        W39245   9.317  27.211   3.357 -0.0782  0.0571 -0.0910
    1W        W39246  26.245  28.822   8.465  0.0233  0.1131  0.1353
    1W        W39247  20.628  25.206   2.022  0.2570  0.1028  0.2067
    1W        W39248   4.258  28.585   8.313  0.0576  0.0759  0.0341
    1W        W39249   1.642  26.227   8.964  0.2360 -0.1559  0.0947
    1W        W39250  26.265  22.033   1.964 -0.3142 -0.0933 -0.1721
    1W        W39251  27.793   3.939   8.889 -0.3212 -0.1614  0.1867
    1W        W39252  14.895  19.604   8.493 -0.0353 -0.0367  0.0826
    1W        W39253   7.993  24.483   1.710  0.0142 -0.1798  0.2870
    1W        W39254   7.494  17.621   9.117  0.1915  0.1162 -0.1829
    1W        W39255  20.024   4.083   9.425  0.1031  0.0819  0.0769
    1W        W39256  29.048  23.246   1.071 -0.1956 -0.0759  0.1700
    1W        W39257   7.827  12.626   0.498  0.0451 -0.1864 -0.1890
    1W        W39258   8.475  12.799   7.601  0.1359  0.2544  0.0417
    1W        W39259   6.436  16.949   2.534 -0.0128  0.2610 -0.0422
    1W        W39260  22.266   7.621   9.506 -0.0323  0.1668 -0.0514
    1W        W39261   7.474  25.794   8.104  0.1002  0.0245 -0.0692
    1W        W39262  24.624  13.933   1.595  0.0011  0.2853  0.1744
    1W        W39263  11.985   7.980   3.172 -0.1158  0.1594 -0.3343
    1W        W39264  16.962   8.145   9.158 -0.3078 -0.1042 -0.0972
    1W        W39265  16.129   5.768   1.110  0.2963  0.0350 -0.0520
    1W        W39266   2.657   8.027   7.842  0.0034  0.1109  0.1140
    1W        W39267  28.521   8.874   1.563 -0.2375 -0.2669 -0.1278
    1W        W39268   9.025  24.355   9.222  0.1134 -0.0982 -0.3098
    1W        W39269  16.070   9.365   1.806 -0.1963  0.1236  0.2321
    1W        W39270   8.807  20.222   8.914 -0.0747 -0.0728  0.0516
    1W        W39271  18.159  22.885   6.371  0.2156  0.0933  0.1339
    1W        W39272  12.655  23.882   7.977  0.1303  0.1253  0.0270
    1W        W39273  11.646   1.140   2.609 -0.2120  0.2081  0.1027
    1W        W39274  23.601  21.858   1.702  0.0445 -0.2735 -0.0474
    1W        W39275   0.624  21.476   1.735 -0.0143 -0.0056  0.1724
    1W        W39276  28.949  15.144   9.073  0.0442  0.1201 -0.1411
    1W        W39277   6.968  21.830   0.372 -0.2691 -0.4414 -0.0901
    1W        W39278   4.603  18.497   9.603  0.0448 -0.0006 -0.0925
    1W        W39279   8.086  22.716   8.590 -0.1306 -0.0100 -0.0901
    1W        W39280  12.587  23.976   9.386 -0.0371 -0.1845 -0.1649
    1W        W39281  28.669   1.878   7.219  0.1392 -0.0107  0.3205
    1W        W39282  17.415   0.537   7.310  0.2823 -0.1842 -0.0409
    1W        W39283   8.350  12.610   0.372 -0.3629 -0.0508 -0.0893
    1W        W39284  14.078   2.051   8.114  0.0167 -0.0110 -0.0937
    1W        W39285  24.628  23.293   3.049  0.1667 -0.0290 -0.0575
    1W        W39286  27.217   3.302   0.363 -0.0797 -0.2119 -0.2142
    1W        W39287  15.179   4.275   3.557 -0.1078 -0.4216 -0.2803
    1W        W39288  24.499   2.200   2.219  0.0368 -0.1407 -0.2020
    1W        W39289  11.153  22.238   5.817 -0.1495 -0.1336  0.0193
    1W        W39290   2.370  26.959   2.017  0.0334  0.3918  0.1269
    1W        W39291   0.390  12.005   0.396 -0.0139 -0.0118  0.0008
    1W        W39292  25.206   7.117   1.641 -0.3395 -0.1666  0.0713
    1W        W39293  14.360   4.352   9.403 -0.1525  0.1178 -0.1411
    1W        W39294  13.252   3.620   2.100  0.1209  0.1016 -0.2483
    1W        W39295   3.345  11.561   1.702 -0.0538 -0.1700 -0.3436
    1W        W39296  20.132  28.075   2.890 -0.1379 -0.0265 -0.1294
    1W        W39297  19.839  17.591   1.407 -0.2254  0.2129  0.1983
    1W        W39298  14.521   1.787   3.317 -0.3627 -0.1031 -0.0725
    1W        W39299  22.599  24.000   2.742  0.1170 -0.2816  0.1139
    1W        W39300  20.210  25.174   7.067 -0.2333  0.2581 -0.2301
    1W        W39301   5.567  28.639   2.235 -0.2579 -0.3511 -0.0036
    1W        W39302  26.031  11.307   8.136  0.0669 -0.0377  0.2221
    1W        W39303   9.042  22.636   9.084 -0.2653  0.1923  0.1128
    1W        W39304  18.007   8.238   1.687  0.0128  0.1335  0.1554
    1W        W39305  11.434  13.572   2.144 -0.1549  0.0289  0.1318
    1W        W39306  16.117   8.211   8.552  0.2853 -0.2059  0.0033
    1W        W39307  22.578   2.264   8.813 -0.1361  0.2032 -0.1407
    1W        W39308  24.579  15.370   6.739 -0.0277  0.3962  0.2052
    1W        W39309  14.056  10.708   9.277 -0.0016  0.3995  0.1540
    1W        W39310  22.281  16.652   9.457  0.2682 -0.1042  0.0256
    1W        W39311   4.882  10.265   0.546  0.1192 -0.2382  0.0570
    1W        W39312  27.344   0.982   8.644 -0.0967  0.2720  0.0713
    1W        W39313  14.234   5.455   8.594  0.3685 -0.0380  0.3786
    1W        W39314  23.031   6.367   9.235 -0.5221 -0.6358 -0.1324
    1W        W39315  16.191  21.517   1.714  0.0026  0.0442 -0.3450
    1W        W39316  16.753  14.196   8.210 -0.1569  0.0015 -0.0205
    1W        W39317   6.747   9.509   6.756  0.1729 -0.0176 -0.2337
    1W        W39318  27.454  27.630   7.951  0.0357  0.1968 -0.1885
    1W        W39319   6.557  11.360   7.364  0.2505 -0.0632  0.0001
    1W        W39320   3.859  28.050   0.640  0.4363  0.0862  0.0331
    1W        W39321  17.359  23.761   8.828 -0.0829 -0.1671  0.2254
    1W        W39322   5.461  26.579   7.821 -0.0399  0.1471  0.1160
    1W        W39323  10.243  13.019   0.968  0.1213  0.0782 -0.2859
    1W        W39324  10.829   2.260   2.279 -0.1265  0.0272  0.1281
    1W        W39325   3.055  11.975   9.130 -0.2241  0.2355  0.1408
    1W        W39326  10.817   0.916   9.407 -0.2208  0.3383 -0.0894
    1W        W39327   9.550   9.302   1.521 -0.0210 -0.0790  0.2328
    1W        W39328   2.131  17.645   8.274  0.2729 -0.0226  0.0078
    1W        W39329   5.458  25.558   0.306  0.1564  0.0557 -0.0009
    1W        W39330  12.945  18.244   2.085 -0.1742 -0.1243  0.0612
    1W        W39331  11.865  17.345   8.779 -0.1322  0.1537  0.0851
    1W        W39332  26.616  15.630   8.953 -0.2074 -0.0758 -0.0262
    1W        W39333  21.028  29.251   8.141  0.3661 -0.0951 -0.1081
    1W        W39334  22.057   1.220   6.053  0.1014  0.2625 -0.3262
    1W        W39335  26.318  12.327   8.086 -0.2585 -0.0550  0.4694
    1W        W39336   5.767   5.870   1.436 -0.0111  0.0072  0.1198
    1W        W39337   7.996  24.896   7.483 -0.0188 -0.2906 -0.1452
    1W        W39338  10.454   0.440   3.154  0.2919  0.0783 -0.2520
    1W        W39339  18.935  19.757   2.436 -0.2631  0.3052 -0.0651
    1W        W39340  26.774  13.694   6.387  0.0550 -0.1899  0.0794
    1W        W39341  25.891  24.564   3.262 -0.0532  0.0314  0.0322
    1W        W39342   1.231  25.771   0.540  0.3574 -0.2456  0.0762
    1W        W39343   7.432   3.830   7.644  0.1534 -0.0601  0.0556
    1W        W39344  13.286   9.106   9.056  0.1401  0.0798  0.0069
    1W        W39345  15.578   5.806   3.553  0.4761 -0.2066  0.1144
    1W        W39346  26.082   8.763   0.122 -0.1524 -0.0528 -0.0038
    1W        W39347  17.915  24.355   8.704 -0.2168  0.3941 -0.0079
    1W        W39348  14.247   4.047   8.999 -0.1821 -0.0780  0.0683
    1W        W39349  17.896   0.769   0.075  0.0885  0.0605  0.2145
    1W        W39350   3.512  12.433   6.794  0.0915 -0.1589  0.1767
    1W        W39351  27.810  12.213   0.051 -0.0556 -0.1075  0.0808
    1W        W39352  11.408  14.798   1.925 -0.0503  0.0460 -0.0479
    1W        W39353  14.588  28.828   3.771  0.3111  0.1771  0.2596
    1W        W39354  12.198  15.519   2.021  0.3954  0.0633 -0.0255
    1W        W39355   5.184  11.789   6.204  0.0515  0.5379 -0.0836
    1W        W39356  23.518  25.450   2.316  0.1185  0.1338 -0.1668
    1W        W39357  10.618  15.706   9.654  0.1478  0.0316 -0.1834
    1W        W39358  23.648  23.644   8.618 -0.0821  0.0124 -0.1283
    1W        W39359  18.035   1.757   8.128 -0.1916  0.0928  0.1048
    1W        W39360  12.840  14.107   2.240 -0.1256  0.0490 -0.2408
    1W        W39361  23.551   0.067   1.151  0.0551 -0.2947 -0.1235
    1W        W39362  17.706   9.829   1.602  0.0738 -0.1281 -0.0114
    1W        W39363  14.176  25.803   8.627  0.1331 -0.2973 -0.1728
    1W        W39364  16.743  14.444   8.728 -0.0999 -0.2737  0.1646
    1W        W39365  20.410  21.205   7.490 -0.3114 -0.0442 -0.0251
    1W        W39366  13.015   1.262   9.604 -0.2743 -0.0151  0.0981
    1W        W39367   9.735   1.281   7.901 -0.2981  0.2290 -0.1847
    1W        W39368   0.354  24.100   9.295 -0.0315  0.0441  0.0871
    1W        W39369   3.328  25.690   0.069 -0.2890  0.1416  0.0865
    1W        W39370  23.653  10.900   0.068 -0.2943  0.1886  0.0262
    1W        W39371  10.184  18.186   0.605  0.2043 -0.0893 -0.0768
    1W        W39372   8.966   1.549   9.334  0.2605 -0.2555  0.1840
    1W        W39373  27.658   1.342   2.030 -0.4715  0.1551 -0.0265
    1W        W39374  18.307  25.025   1.543 -0.3049  0.0070 -0.0728
    1W        W39375   6.032   8.546   1.922  0.0714 -0.1504  0.0967
    1W        W39376  20.896  19.006   8.155  0.1745 -0.0029  0.2130
    1W        W39377  28.250  27.220   3.881  0.1092 -0.0202  0.1878
    1W        W39378  26.310  21.261   0.494  0.3590 -0.0732 -0.1657
    1W        W39379  21.583   3.364   2.175 -0.0788  0.0111  0.1638
    1W        W39380   7.881   3.664   7.525  0.2574 -0.1684 -0.2440
    1W        W39381   1.725  17.349   6.355 -0.2234 -0.1409 -0.1362
    1W        W39382  27.685   0.263   9.345 -0.0441 -0.2361  0.0507
    1W        W39383   1.050  11.893   2.458  0.0798  0.1837 -0.0523
    1W        W39384   9.872  11.422   7.858  0.1180  0.0212  0.1939
    1W        W39385  26.531  24.070   7.676  0.0880  0.0224 -0.1581
    1W        W39386  17.272   2.745   0.604 -0.1666  0.1468 -0.2837
    1W        W39387   0.399   5.556   8.710 -0.1656  0.1929  0.1372
    1W        W39388  22.968  18.503   7.408  0.1465 -0.2816  0.2115
    1W        W39389   7.634  10.295   8.845 -0.1233  0.3344  0.0224
    1W        W39390   8.166  28.824   0.785  0.4324  0.2410  0.1288
    1W        W39391   7.773  21.186   1.607  0.0128  0.5398 -0.0950
    1W        W39392   7.155   7.093   0.132 -0.3063  0.1470 -0.0267
    1W        W39393  13.140  27.174   2.298  0.0198  0.0055 -0.0365
    1W        W39394   6.171   8.602   1.346 -0.0369 -0.1086  0.1156
    1W        W39395   5.166  18.265   6.528  0.1099 -0.0918  0.1326
    1W        W39396  18.288  12.004   9.520  0.1680 -0.1623  0.0023
    1W        W39397  22.910   8.696   6.508  0.1089  0.3343 -0.1101
    1W        W39398  22.191   9.528   7.376 -0.0214 -0.2339 -0.2212
    1W        W39399  26.688  26.577   6.539  0.1055 -0.1647  0.1356
    1W        W39400  14.374   8.448   2.255  0.0183 -0.1047  0.4373
    1W        W39401   3.341   9.676   0.234  0.1491  0.0788 -0.1245
    1W        W39402   4.315   1.915   3.475 -0.0537 -0.1126 -0.0137
    1W        W39403  28.106  14.004   8.843  0.2151 -0.3209  0.0635
    1W        W39404  20.300   9.299   7.561 -0.0330  0.0472 -0.2591
    1W        W39405  18.488   2.799   0.937 -0.1844 -0.2393 -0.1691
    1W        W39406  14.017  17.835   6.801 -0.2120 -0.1066 -0.0546
    1W        W39407   1.553   0.799   8.359  0.0414 -0.0353  0.0947
    1W        W39408   0.786  24.821   0.497  0.0875  0.1891 -0.4381
    1W        W39409  28.718  17.524   8.340 -0.1320 -0.0312  0.1910
    1W        W39410  11.029   3.142   2.385 -0.0434  0.1979  0.0285
    1W        W39411   8.123   1.343   0.147 -0.2649  0.0444  0.1048
    1W        W39412   8.743  10.788   1.460  0.1514 -0.0486  0.0967
    1W        W39413  28.748   3.344   9.413 -0.0481  0.1357  0.0650
    1W        W39414  13.590   9.916   9.531 -0.3186 -0.1352 -0.1071
    1W        W39415  24.984  22.855   9.564 -0.0364 -0.1415 -0.1837
    1W        W39416  18.421  23.382   7.129  0.0803  0.2569 -0.1331
    1W        W39417  18.481  23.847   7.928  0.2380 -0.2110  0.1254
    1W        W39418  26.462  19.739   0.525 -0.1069 -0.2204  0.2922
    1W        W39419  20.557  14.504   9.371 -0.0151 -0.0195 -0.1124
    1W        W39420   1.967  23.441   6.686  0.3567 -0.1773  0.0060
    1W        W39421   2.678  24.995   2.254 -0.0553  0.0148  0.1756
    1W        W39422   7.462  19.802   7.059 -0.2777 -0.2089  0.3962
    1W        W39423  15.294  29.328   0.527  0.1932 -0.0097  0.1029
    1W        W39424   8.083  26.825   1.889 -0.1622  0.1307  0.3161
    1W        W39425  24.605  21.343   2.498  0.1781 -0.1650 -0.0351
    1W        W39426   1.552  18.679   2.420 -0.0248  0.1795 -0.0109
    1W        W39427   3.005  25.433   3.154  0.0801  0.1912  0.0344
    1W        W39428  21.828   6.931   7.969  0.2269  0.3544  0.4518
    1W        W39429  10.119   3.127   0.552 -0.1271 -0.1007 -0.0424
    1W        W39430   6.413   6.690   9.051 -0.0397  0.2092 -0.1115
    1W        W39431  13.756  27.159   0.798  0.0618 -0.2617  0.1321
    1W        W39432   6.111  10.022   1.082  0.1483 -0.0232 -0.0833
    1W        W39433  22.455  27.908   1.066  0.0546 -0.0459 -0.2803
    1W        W39434   8.332  26.513   0.449  0.3745 -0.1906 -0.0348
    1W        W39435  28.023  13.673   7.804 -0.0892 -0.0894  0.2134
    1W        W39436   7.653   3.982   8.433  0.1630  0.2005 -0.1136
    1W        W39437   7.159  19.807   2.571  0.0952  0.0489 -0.1599
    1W        W39438  26.750  26.136   1.217 -0.0590  0.1510  0.0580
    1W        W39439  17.407  28.138   9.311  0.1893 -0.1118 -0.1932
    1W        W39440  17.792  27.620   8.252 -0.0465  0.1577  0.2553
    1W        W39441  17.120  27.191   8.513  0.1725  0.1203  0.2625
    1W        W39442  17.621  24.852   2.090 -0.0127 -0.2556 -0.0483
    1W        W39443   5.907  23.265   0.867  0.0777 -0.3262  0.2205
    1W        W39444  10.704  17.532   0.417 -0.0312  0.2647 -0.2621
    1W        W39445  16.924   5.205   0.697 -0.3211  0.1344  0.0270
    1W        W39446  21.913  23.662   0.104 -0.2393 -0.0252 -0.0548
    1W        W39447  11.272  19.875   0.385  0.4051  0.0768  0.0285
    1W        W39448  16.086  21.681   0.834 -0.0604 -0.1303  0.0534
    1W        W39449  17.679  19.742   8.249  0.1363 -0.1138 -0.2582
    1W        W39450  11.557  23.958   2.033 -0.1387 -0.2040  0.0163
    1W        W39451   6.718   8.293   9.035 -0.1941  0.0256 -0.1787
    1W        W39452  22.556  12.154   0.888 -0.1662 -0.1282  0.1921
    1W        W39453  11.033  23.960   9.615  0.2474 -0.0960  0.1226
    1W        W39454   9.524  25.031   0.141 -0.0149  0.2482  0.1751
    1W        W39455  19.352   6.308   2.442  0.2403  0.1973  0.0312
    1W        W39456  27.703   6.237   0.553 -0.0708 -0.0445 -0.0205
    1W        W39457  12.717  18.669   7.933  0.1084  0.0419 -0.0065
    1W        W39458   4.965  20.200   0.997  0.1651 -0.1124  0.0562
    1W        W39459   2.029   3.493   7.918 -0.0618  0.0442  0.0939
    1W        W39460  14.719   8.517   8.315  0.2414 -0.0487 -0.0739
    1W        W39461  21.075   0.451   1.581  0.0365  0.2202 -0.1508
    1W        W39462   6.555  12.760   2.791 -0.1278  0.1921  0.1915
    1W        W39463   2.940  15.563   1.973 -0.3844  0.3349  0.0338
    1W        W39464  12.408   3.846   3.257 -0.1838 -0.2146  0.0730
    1W        W39465   9.316  23.545   7.922  0.1244  0.2278  0.1407
    1W        W39466   7.385  20.343   7.084  0.2587  0.1369 -0.2385
    1W        W39467   4.982  17.021   7.297 -0.1338  0.2617  0.0720
    1W        W39468  14.333  18.069   9.384  0.1753  0.0381  0.0054
    1W        W39469  11.666   5.397   6.807  0.0770 -0.0635 -0.3047
    1W        W39470  23.127  19.710   8.248 -0.0134 -0.0970 -0.1720
    1W        W39471  16.146  21.042   2.016  0.1945 -0.1759 -0.0191
    1W        W39472   3.508   2.742   9.178  0.0715 -0.1666  0.0419
    1W        W39473  20.998  10.829   0.705  0.0276 -0.1621 -0.1460
    1W        W39474  10.284  27.923   3.456 -0.1102 -0.1301  0.0493
    1W        W39475  20.844  11.690   7.387 -0.1237 -0.2187  0.0837
    1W        W39476  21.111  28.188   0.105 -0.0366 -0.0851 -0.2698
    1W        W39477  20.054  27.712   0.099 -0.0671  0.1637 -0.0915
    1W        W39478  10.275  15.886   7.216 -0.2190 -0.0357  0.2007
    1W        W39479   0.618  17.805   7.764  0.0994 -0.0046  0.0124
    1W        W39480   3.229   0.592   0.949 -0.0308  0.2122 -0.0824
    1W        W39481   1.206   4.759   0.926 -0.3921  0.4176 -0.0573
    1W        W39482   3.806   3.684   2.331 -0.1027 -0.1467 -0.0341
    1W        W39483  13.575  12.954   2.048  0.3398  0.0002 -0.0194
    1W        W39484   2.886  20.409   0.690  0.2599 -0.1684  0.1419
    1W        W39485   4.126  12.340   2.469 -0.1179  0.1478  0.3631
    1W        W39486  29.162   0.192   1.979 -0.0504  0.0532  0.0060
    1W        W39487  23.384  11.112   0.432 -0.0505 -0.3586 -0.0036
    1W        W39488  23.650  23.428   1.227  0.2199  0.0260  0.2783
    1W        W39489  11.368  25.977   8.115  0.2829  0.1738 -0.1391
    1W        W39490   9.075   6.275   8.210 -0.0109  0.2138 -0.2495
    1W        W39491   2.965  12.345   0.322  0.1375 -0.0510  0.3060
    1W        W39492   5.907  28.405   2.511 -0.2827 -0.2048 -0.2671
    1W        W39493   0.342  25.880   2.445  0.2159 -0.0038 -0.0700
    1W        W39494  18.488  13.726   9.479 -0.1344  0.3823 -0.2870
    1W        W39495  11.767  25.091   7.775 -0.0992 -0.0528  0.0862
    1W        W39496   7.698  24.374   1.185  0.1026 -0.3404  0.3056
    1W        W39497  19.417  10.359   1.921 -0.1236 -0.3610  0.2529
    1W        W39498   5.390   8.687   0.310  0.2636 -0.0376  0.2127
    1W        W39499  16.834  28.200   1.374  0.0548 -0.1274  0.1282
    1W        W39500   1.355   5.550   7.389 -0.0058  0.1996  0.0295
    1W        W39501  26.317  12.441   0.814  0.2430  0.2957 -0.4350
    1W        W39502  22.319  24.799   0.394 -0.0374  0.1811  0.2699
    1W        W39503  22.306   3.548   0.790  0.1331 -0.1592  0.0576
    1W        W39504   0.075   0.019   8.695  0.0602  0.3657  0.3819
    1W        W39505  27.201   6.626   6.923  0.3261  0.2535  0.1985
    1W        W39506  17.864   5.174   8.066  0.3928  0.0764  0.0057
    1W        W39507  15.572  23.030   6.911  0.0014  0.4997 -0.1214
    1W        W39508  22.556  22.399   0.497  0.4204  0.0791  0.3644
    1W        W39509  25.490  23.543   0.031 -0.1430 -0.1314  0.3917
    1W        W39510  24.118  18.071   8.475  0.1975 -0.1435 -0.1583
    1W        W39511  11.024   9.582   1.383 -0.3295  0.1485  0.1925
    1W        W39512  27.699   4.789   8.192  0.0704  0.0133 -0.2239
    1W        W39513   2.993  14.037   1.856 -0.4595 -0.1698 -0.3500
    1W        W39514  16.786  18.043   2.367 -0.2263  0.2703  0.0864
    1W        W39515  27.384  14.261   1.170  0.1667 -0.1304 -0.1340
    1W        W39516   4.062  16.570   8.713  0.1104  0.0983  0.0668
    1W        W39517  23.571  27.195   1.219 -0.0357 -0.1960 -0.0187
    1W        W39518   3.582  13.543   0.036 -0.0698 -0.4234  0.2284
    1W        W39519  22.243  13.575   8.779 -0.3284  0.1593  0.0428
    1W        W39520   9.380  22.208   6.228  0.1659  0.2242  0.0100
    1W        W39521   1.364  20.633   5.533  0.1543  0.0632  0.3187
    1W        W39522   9.197  27.256   0.898  0.2231  0.0480  0.0938
    1W        W39523   2.444  20.870   9.089  0.0443 -0.0820 -0.2463
    1W        W39524  27.067  24.138   7.743  0.3535 -0.0329 -0.0384
    1W        W39525   9.673  10.000   8.887 -0.2680  0.0385  0.1516
    1W        W39526  24.217  24.846   0.602 -0.1457 -0.3495 -0.2200
    1W        W39527   5.466  28.544   1.581 -0.0187 -0.0404  0.0025
    1W        W39528   0.374  21.084   0.370  0.2705 -0.1749  0.1564
    1W        W39529  14.290  17.338   1.436  0.2109 -0.0807  0.2149
    1W        W39530  18.289  14.753   0.492  0.0579 -0.2824  0.2761
    1W        W39531  18.082   1.796   0.384 -0.0188  0.0805 -0.2966
    1W        W39532  19.284  16.446   1.330 -0.1083  0.2500 -0.0770
    1W        W39533   2.591  29.086   2.650 -0.2107  0.0498  0.0967
    1W        W39534   0.180   8.935   8.833 -0.0426 -0.2855 -0.2472
    1W        W39535  27.803  18.121   7.439  0.3581 -0.0334 -0.1375
    1W        W39536  23.248  24.980   0.136  0.1419 -0.0786 -0.3332
    1W        W39537  21.801  12.964   1.969 -0.1160 -0.1003 -0.1647
    1W        W39538   9.213   9.031   1.201  0.0990  0.1327  0.1030
    1W        W39539  28.996  16.624   7.005 -0.0853 -0.2774  0.1539
    1W        W39540   3.203  26.478   1.666  0.1854 -0.0703  0.2291
    1W        W39541  27.202  26.661   2.221  0.1629 -0.2510 -0.0305
    1W        W39542   2.816  24.924   6.744 -0.0309 -0.2656  0.0405
    1W        W39543   8.494   4.080   0.278 -0.0030  0.1416 -0.0924
    1W        W39544  11.633  21.646   7.126  0.1684 -0.1013 -0.0678
    1W        W39545  10.039  28.827   3.168  0.0822  0.5239  0.2144
    1W        W39546  28.081  12.359   2.121 -0.1671  0.0246 -0.0699
    1W        W39547  11.829  19.283   9.473  0.3117 -0.0714 -0.1572
    1W        W39548   2.857  23.308   7.645 -0.0899 -0.1685  0.0969
    1W        W39549  21.405   3.472   2.971  0.2591  0.0824  0.0042
    1W        W39550  22.419   5.770   8.103  0.2576 -0.1058  0.1823
    1W        W39551  13.384  17.864   0.063  0.0607  0.0214  0.0677
    1W        W39552  15.377  22.387   6.495  0.0271 -0.0702 -0.3618
    1W        W39553  13.324  28.562   8.901 -0.3359  0.1606  0.0918
    1W        W39554  17.171   7.480   1.594 -0.0214  0.1277 -0.2441
    1W        W39555   6.260   0.302   9.557  0.1040 -0.0578 -0.0227
    1W        W39556   5.706  28.898   3.080  0.2710 -0.0194 -0.3547
    1W        W39557  17.664  18.663   2.761  0.1263 -0.3723  0.2336
    1W        W39558   2.830  28.443   8.890 -0.0792 -0.1826 -0.4509
    1W        W39559  14.941  22.059   2.214  0.0734  0.0473  0.1969
    1W        W39560  11.519  25.747   7.257 -0.0087 -0.0371  0.0128
    1W        W39561   2.777   5.443   2.330 -0.1020  0.1930 -0.0364
    1W        W39562  21.846   0.626   0.583  0.3096 -0.0609  0.3219
    1W        W39563   1.121  21.640   0.409  0.0232  0.0256 -0.3375
    1W        W39564   2.446  10.871   0.119  0.1354 -0.0062 -0.1399
    1W        W39565  21.405  22.991   8.283 -0.1524  0.1686 -0.0651
    1W        W39566  29.287   3.072   0.698  0.0604  0.0865 -0.3675
    1W        W39567   4.758  19.996   9.395  0.1854 -0.0947 -0.0723
    1W        W39568   3.309   1.939   0.354 -0.4022 -0.1483 -0.2097
    1W        W39569  10.993  17.480   0.839 -0.3187  0.4067  0.1163
    1W        W39570  23.991   5.025   1.319  0.2643  0.3079  0.1817
    1W        W39571  10.285  22.061   2.718  0.2922 -0.1098  0.0498
    1W        W39572  13.209  28.665   3.882  0.2270  0.2559  0.2492
    1W        W39573  16.866   0.409   8.652 -0.0429  0.3435 -0.0056
    1W        W39574  22.064  12.258   1.978 -0.2295 -0.3019  0.1415
    1W        W39575  24.426  15.745   9.108  0.1745  0.0648  0.1986
    1W        W39576  11.851  28.970   0.939 -0.0336  0.0908  0.0276
    1W        W39577   7.773   9.917   0.939  0.1961  0.1371 -0.0887
    1W        W39578   2.392   6.949   8.575 -0.0428  0.2694  0.0320
    1W        W39579   8.274  18.732   9.203  0.1476 -0.2107  0.2577
    1W        W39580  12.468   4.883   0.979  0.2054 -0.0068  0.1874
    1W        W39581  13.457   7.755   2.947  0.1806  0.0368 -0.1286
    1W        W39582   7.269   1.316   0.468  0.2825  0.0482  0.0479
    1W        W39583  15.018  20.259   1.660 -0.2679  0.0364 -0.2481
    1W        W39584  20.594  13.996   1.465  0.0665 -0.1496 -0.1727
    1W        W39585   3.657  15.122   6.774  0.0055 -0.2184  0.2307
    1W        W39586   7.203  20.599   1.586  0.2745 -0.1827  0.1207
    1W        W39587   2.073   0.418   7.731  0.2298  0.5672  0.0957
    1W        W39588  19.730  19.119   1.192  0.0556  0.4407 -0.1871
    1W        W39589  27.752   1.310   8.635  0.0240  0.2274  0.0369
    1W        W39590   2.518  12.215   7.328  0.0005  0.1059  0.0650
    1W        W39591  27.193  24.874   0.484  0.2732  0.1614 -0.1847
    1W        W39592   9.577  19.571   6.619  0.0547  0.0463  0.1745
    1W        W39593  22.403  14.574   1.677 -0.0859 -0.1822  0.0003
    1W        W39594   1.609   6.214   6.885  0.4576 -0.2391 -0.0217
    1W        W39595  18.904  20.215   2.569  0.0650 -0.3529  0.3045
    1W        W39596  25.308  18.377   9.414  0.1033 -0.2583  0.0869
    1W        W39597  12.757  20.212   2.076  0.1434 -0.1254  0.0029
    1W        W39598   5.088  14.344   2.835  0.0878  0.1271 -0.3661
    1W        W39599  20.257   4.485   1.277 -0.1214  0.0089  0.1893
    1W        W39600  22.476  28.238   1.541 -0.0923  0.3055 -0.2734
    1W        W39601  24.048  11.016   8.774  0.1459 -0.0481  0.0077
    1W        W39602  18.082   9.927   1.285 -0.6224 -0.1224  0.0799
    1W        W39603  22.399   7.846   0.860  0.2509 -0.3009  0.0968
    1W        W39604  13.527   9.406   8.677 -0.1812 -0.2591 -0.1269
    1W        W39605  14.514  15.455   1.671 -0.1082  0.0971 -0.0569
    1W        W39606   5.569  10.439   9.623  0.0568 -0.2315  0.0154
    1W        W39607  26.791  22.287   8.775  0.0696 -0.0315 -0.0704
    1W        W39608  29.172  19.771   2.146  0.0452 -0.0765 -0.0288
    1W        W39609  10.125  12.967   9.281 -0.1513  0.1221  0.0841
    1W        W39610  18.514  24.164   8.915  0.2089  0.3947 -0.2642
    1W        W39611  13.311  16.105   0.039 -0.3041  0.2833  0.1611
    1W        W39612  29.320  26.791   1.207  0.1060 -0.0202 -0.0244
    1W        W39613  11.298   3.971   3.069  0.1354  0.0872 -0.2606
    1W        W39614  16.734  15.030   0.710 -0.2581 -0.2732 -0.0143
    1W        W39615  19.854  25.190   0.674  0.0482 -0.0045 -0.0993
    1W        W39616  10.163   5.688   8.545  0.0285  0.0187  0.0609
    1W        W39617  22.926   9.140   2.615  0.0276  0.3330  0.1165
    1W        W39618  26.501  24.643   9.535 -0.3587  0.1192  0.4678
    1W        W39619   2.470  28.034   1.564  0.0563 -0.1651 -0.0581
    1W        W39620  27.507  16.225   1.583 -0.0538 -0.2884  0.1398
    1W        W39621  26.698   8.120   0.808  0.1043 -0.1482  0.0696
    1W        W39622   8.743  24.533   6.346  0.3980  0.3089 -0.0257
    1W        W39623  24.067  13.155   0.053  0.1731  0.2478  0.0883
    1W        W39624   1.189   5.307   1.794  0.0153  0.0420  0.4255
    1W        W39625  24.438  22.442   0.541 -0.1013  0.1193 -0.1376
    1W        W39626  10.774  27.088   0.183  0.0287 -0.0937  0.1555
    1W        W39627  27.748  13.018   0.785 -0.1174 -0.1550  0.3010
    1W        W39628  21.324  16.611   2.049 -0.1666 -0.2170  0.1521
    1W        W39629  17.791  27.758   2.076 -0.0535  0.0785  0.0273
    1W        W39630   2.965   1.663   0.117 -0.1482 -0.2378 -0.2167
    1W        W39631   9.254   4.658   1.588  0.0681  0.2611 -0.0430
    1W        W39632   3.061  24.547   9.085 -0.0717  0.0341 -0.0520
    1W        W39633  12.183   6.956   1.433  0.0019 -0.1347  0.1069
    1W        W39634  28.408  18.608   0.445 -0.0863 -0.1700 -0.1605
    1W        W39635  11.288   2.854   9.128 -0.3587 -0.2723  0.1949
    1W        W39636   9.303  12.811   8.032 -0.1416  0.4783  0.3577
    1W        W39637  28.135   2.968   7.084 -0.0111 -0.0799  0.3630
    1W        W39638   3.472  14.760   8.391 -0.0383  0.3172 -0.2368
    1W        W39639  27.181   1.423   7.726 -0.0140 -0.1061 -0.1704
    1W        W39640  27.196   3.596   7.308  0.1791 -0.2581 -0.0769
    1W        W39641  21.371  27.868   2.354 -0.2737  0.5162  0.1100
    1W        W39642  10.666  28.798   7.458  0.4270  0.1210 -0.2969
    1W        W39643  17.033   3.517   0.123 -0.0320  0.1112  0.0253
    1W        W39644  27.361   9.404   1.171 -0.2366  0.1872 -0.0476
    1W        W39645  12.079  21.824   0.330 -0.1375 -0.2442  0.0900
    1W        W39646  21.726  23.802   2.088  0.2203  0.4258  0.1560
    1W        W39647  21.481  24.382   7.401 -0.0252 -0.0517  0.5050
    1W        W39648  14.445  14.082   1.347  0.0509  0.0860  0.2169
    1W        W39649  10.829   1.565   8.820  0.1701  0.3102  0.2173
    1W        W39650  22.080  21.990   6.898 -0.1063 -0.3035 -0.0081
    1W        W39651   4.324  11.518   0.298 -0.0907  0.2762  0.1711
    1W        W39652  18.366  24.583   9.660 -0.0008 -0.0947  0.0851
    1W        W39653   2.014  22.894   6.440  0.0908  0.3532  0.1222
    1W        W39654   3.420  13.463   0.504  0.1161  0.1903 -0.0277
    1W        W39655   1.630  28.472   8.155 -0.1062  0.0742 -0.1464
    1W        W39656   7.913  18.327   8.532 -0.2533 -0.1033 -0.2992
    1W        W39657   1.365  15.352   0.280  0.2005 -0.0991  0.5271
    1W        W39658   4.239  20.490   1.710 -0.0925  0.0074  0.0857
    1W        W39659  28.702   3.613   2.388 -0.1445 -0.0254 -0.1203
    1W        W39660  16.804  19.137   9.585 -0.1037  0.1322 -0.1306
    1W        W39661  20.219   0.964   1.778 -0.1293  0.2804 -0.1964
    1W        W39662  17.800  12.439   1.273  0.4087 -0.0473 -0.2433
    1W        W39663   5.412   0.985   0.747 -0.2263  0.0970  0.1087
    1W        W39664   4.893   9.100   2.629  0.1429  0.2500  0.1164
    1W        W39665  24.454  22.725   2.345 -0.0081  0.2015 -0.0217
    1W        W39666  12.635   1.859   3.056  0.1592 -0.3477  0.0385
    1W        W39667  14.911  26.374   8.633 -0.3020 -0.0067 -0.1590
    1W        W39668   3.852  22.376   0.190  0.4012 -0.0280 -0.0198
    1W        W39669  11.254  29.183   9.319 -0.1866  0.1290  0.1252
    1W        W39670   4.460   0.054   8.130  0.0120  0.1826  0.0278
    1W        W39671  14.130  17.981   0.948 -0.2211  0.1163 -0.1286
    1W        W39672   0.106   5.110   2.810 -0.0898 -0.3423 -0.0790
    1W        W39673  28.341  20.646   7.582 -0.0606  0.2644  0.4790
    1W        W39674  22.364   7.760   0.345  0.3135 -0.1218 -0.2239
    1W        W39675   2.054  12.045   8.837  0.0464 -0.0647  0.3279
    1W        W39676  29.084  17.890   8.414  0.0638  0.1654 -0.1674
    1W        W39677  15.109   7.419   8.801 -0.0893  0.1119 -0.1163
    1W        W39678  26.534  15.369   1.156 -0.1498  0.1212  0.0798
    1W        W39679  13.885  10.708   1.948  0.1039  0.0308 -0.0970
    1W        W39680   7.268  18.420   6.807  0.2326 -0.0030 -0.0648
    1W        W39681  19.693  19.233   2.067 -0.1765  0.0782  0.2064
    1W        W39682  27.575   8.879   9.203 -0.2272  0.1301  0.0795
    1W        W39683  13.972   4.514   2.544 -0.1534  0.1887  0.1999
    1W        W39684   4.312  25.218   0.015  0.2073  0.2026  0.1016
    1W        W39685  27.690  15.762   2.054 -0.0210 -0.0695 -0.2463
    1W        W39686  22.490  26.369   1.563 -0.0502  0.0007  0.0958
    1W        W39687  20.610  21.437   6.543 -0.1950  0.4809  0.3662
    1W        W39688  29.153   5.046   9.214 -0.0812  0.1342 -0.0340
    1W        W39689  28.429  12.836   1.454  0.1016  0.1040 -0.2339
    1W        W39690   2.984   2.291   5.951  0.1966 -0.1061  0.1422
    1W        W39691  18.297  21.795   3.412  0.4641  0.2325  0.2013
    1W        W39692  25.761   8.003   1.574  0.0333 -0.2421  0.1543
    1W        W39693   8.325   8.404   0.201  0.0195  0.0108 -0.0102
    1W        W39694   1.744  27.188   9.656  0.1225 -0.2958 -0.2722
    1W        W39695   6.282   1.504   8.263 -0.1881 -0.1979  0.2713
    1W        W39696  27.944   5.132   1.407 -0.0520  0.0927 -0.0329
    1W        W39697   1.913  13.543   2.549  0.4123 -0.0392  0.1720
    1W        W39698  10.508   6.186   0.877  0.0670 -0.1915 -0.0085
    1W        W39699  18.087  17.764   8.285  0.0394  0.1007  0.0100
    1W        W39700   0.691  16.303   1.340  0.0575 -0.3528 -0.0875
    1W        W39701   0.780   7.445   6.646  0.0018 -0.0459  0.0054
    1W        W39702  12.235  19.445   8.238  0.0635  0.1122  0.2361
    1W        W39703  13.339  23.145   2.693  0.1826  0.3169 -0.1120
    1W        W39704   0.664  10.194   7.590 -0.3240 -0.1791  0.2101
    1W        W39705   9.856   0.835   9.642 -0.1255  0.3565 -0.0877
    1W        W39706  12.555   7.129   8.156 -0.1055 -0.0124  0.2920
    1W        W39707   7.253  25.833   2.090 -0.0853  0.2077  0.0293
    1W        W39708  11.602   6.463   8.439  0.2164  0.1885 -0.0565
    1W        W39709  17.752  17.518   2.563 -0.2150 -0.4356  0.1130
    1W        W39710   8.634   7.728   7.928 -0.3301 -0.2120 -0.0294
    1W        W39711  24.817  22.740   8.276 -0.0698 -0.1640 -0.1229
    1W        W39712  27.322  25.418   0.646  0.2362 -0.0851 -0.0427
    1W        W39713   0.826   7.649   1.325 -0.0653 -0.1150 -0.2990
    1W        W39714  18.244   7.199   0.174 -0.2400 -0.1669 -0.0520
    1W        W39715  10.119   6.193   8.665 -0.0903 -0.1878  0.0920
    1W        W39716  27.291   1.902   1.167 -0.0085 -0.1331 -0.1925
    1W        W39717   3.989  12.204   0.693  0.1467  0.1055 -0.0845
    1W        W39718   7.848   7.536   0.110 -0.0221 -0.3199 -0.4349
    1W        W39719  11.595   1.765   1.941  0.0215  0.2902  0.0330
    1W        W39720   0.679  24.894   0.005 -0.0657  0.4953 -0.1223
    1W        W39721  24.686  10.558   2.301  0.1237 -0.1251  0.2104
    1W        W39722   8.054  26.232   7.232  0.2635  0.1347 -0.1964
    1W        W39723   3.518  23.109   9.191 -0.0672 -0.3810 -0.2811
    1W        W39724  16.561  28.715   8.259 -0.0458 -0.1033  0.0965
    1W        W39725   1.309  14.894   9.663 -0.2405  0.0042  0.2614
    1W        W39726  28.288  13.167   7.886  0.0693 -0.0139  0.3421
    1W        W39727  24.428  19.060   7.175  0.0499 -0.2402 -0.3205
    1W        W39728  12.116  25.212   2.288 -0.1674 -0.1348  0.0028
    1W        W39729  23.163   8.309   7.324  0.2341  0.1499  0.1718
    1W        W39730   2.009  13.714   2.085 -0.2161  0.3256 -0.1220
    1W        W39731  18.325   0.063   3.162  0.0865 -0.1127  0.1607
    1W        W39732  21.412   0.007   7.611  0.0782 -0.0193  0.1546
    1W        W39733   4.364   0.171   8.668  0.2145 -0.3218 -0.1313
    1W        W39734   8.696  21.139   6.704 -0.1525 -0.2523  0.0189
    1W        W39735   3.837  27.580   0.392  0.2105 -0.1417  0.4035
    1W        W39736   4.252  25.749   2.689  0.0919  0.1667  0.0694
    1W        W39737   7.462  15.371   8.976  0.0823  0.1371  0.0448
    1W        W39738   7.837  12.669   7.703  0.0453  0.0490 -0.2880
    1W        W39739  18.646  19.038   8.483  0.1612  0.0204 -0.3440
    1W        W39740  25.283  25.231   1.727  0.1081  0.3514 -0.2122
    1W        W39741  21.627   7.059   2.013 -0.0287  0.2143 -0.0634
    1W        W39742  18.388   1.389   1.801  0.2125 -0.0144 -0.1090
    1W        W39743  27.988  14.479   8.999  0.1452  0.1491 -0.2637
    1W        W39744   8.349  18.420   2.625  0.0031 -0.1697  0.1100
    1W        W39745   2.044  27.756   1.469 -0.2646  0.4959 -0.2204
    1W        W39746  28.817   7.578   7.698  0.1244  0.2023  0.0287
    1W        W39747  18.596   2.455   2.446  0.2146  0.0612  0.0933
    1W        W39748   6.865   4.363   0.862 -0.3284 -0.3428 -0.0846
    1W        W39749   9.696  26.589   4.033  0.4974 -0.0251 -0.4711
    1W        W39750   9.152  24.451   8.693 -0.1915  0.1619  0.2496
    1W        W39751   6.561   9.679   8.164  0.1283  0.1092  0.0978
    1W        W39752  16.778   1.099   3.446  0.0686 -0.0339 -0.1633
    1W        W39753  11.441  26.048   2.468  0.1020 -0.2183  0.1485
    1W        W39754   3.451  15.429   7.674  0.1270  0.0606  0.1208
    1W        W39755   5.712  11.838   2.502  0.1000 -0.0009  0.0368
    1W        W39756   4.818  23.488   2.738 -0.0476 -0.1833 -0.1448
    1W        W39757   7.237  23.006   9.342  0.3414 -0.0539  0.0214
    1W        W39758   1.578  18.195   0.959  0.0346  0.0191 -0.1331
    1W        W39759  26.230  27.029   8.798  0.0949  0.1868 -0.2631
    1W        W39760   2.126   5.100   1.978  0.1603  0.0466 -0.0397
    1W        W39761  23.340   6.753   6.528  0.0647 -0.0967  0.1663
    1W        W39762  18.235  27.606   7.877  0.2131 -0.0950 -0.2554
    1W        W39763  28.741  26.872   7.164 -0.1862  0.0107 -0.0427
    1W        W39764  26.731  20.191   2.392 -0.2628  0.1175  0.1365
    1W        W39765   6.178   6.283   7.116  0.3482  0.1122  0.2038
    1W        W39766   9.979  24.765   8.470  0.0395 -0.0360 -0.0061
    1W        W39767  13.481  19.208   8.236  0.2904  0.2237  0.2693
    1W        W39768   3.386   7.151   6.156 -0.1661 -0.0870  0.0820
    1W        W39769   6.857   5.782   0.238  0.0351 -0.0650  0.3410
    1W        W39770  15.269  28.178   8.932 -0.0965  0.1063 -0.2729
    1W        W39771  22.466   1.305   0.978  0.0308  0.0996 -0.1363
    1W        W39772   0.396   9.730   2.131 -0.2070  0.3367  0.0357
    1W        W39773  13.342   1.209   2.297  0.1723 -0.0557 -0.1761
    1W        W39774   3.707   9.393   1.562  0.1181  0.0456 -0.5099
    1W        W39775  28.100  17.761   7.670  0.2636  0.3270 -0.3811
    1W        W39776   0.502   3.074   0.795 -0.2135 -0.1162 -0.1098
    1W        W39777  18.312  26.990   9.613 -0.3205  0.1012 -0.0880
    1W        W39778  25.713  28.507   9.632  0.0567  0.0248 -0.2337
    1W        W39779   6.827  29.017   0.353  0.1171  0.2162 -0.1111
    1W        W39780  26.235  12.059   0.471 -0.0607  0.0416  0.0720
    1W        W39781   4.854   8.648   3.260 -0.3363  0.3430 -0.2073
    1W        W39782  25.302   6.012   7.118  0.1481  0.0839  0.1117
    1W        W39783  18.065   5.228   7.592 -0.0128 -0.0556  0.2308
    1W        W39784   3.894   2.774   8.091 -0.0177  0.1439  0.0936
    1W        W39785  14.605   5.789   8.701  0.0241 -0.0723 -0.2349
    1W        W39786   2.697  15.042   6.004 -0.0696 -0.2149  0.2780
    1W        W39787   6.309  17.613   0.551 -0.1347 -0.1130  0.3056
    1W        W39788  27.174  22.864   7.452  0.1370  0.0854 -0.0156
    1W        W39789  20.885  17.027   7.289 -0.2499 -0.1895  0.1136
    1W        W39790  12.274  19.959   2.024  0.1486  0.2417 -0.0162
    1W        W39791   2.715  20.926   0.932  0.3027 -0.1612  0.2133
    1W        W39792  20.566   7.598   0.184  0.0928 -0.0502 -0.2386
    1W        W39793  19.198  19.253   2.005  0.0415  0.0803  0.1929
    1W        W39794  17.928  24.509   2.775  0.2272  0.1406 -0.2590
    1W        W39795  26.213  14.403   6.899 -0.0971 -0.0194 -0.3212
    1W        W39796  19.466  22.309   2.159  0.1178 -0.0401  0.0257
    1W        W39797  13.036  24.726   6.711 -0.1133  0.1569  0.0563
    1W        W39798  25.920   6.118   8.564 -0.0187  0.1432 -0.2818
    1W        W39799  20.121   8.175   1.339  0.2474  0.1336  0.1560
    1W        W39800   8.228  24.796   8.785 -0.0125 -0.1309  0.2628
    1W        W39801  11.358  10.797   9.322 -0.1164 -0.1097  0.0652
    1W        W39802   1.479  26.277   7.803 -0.0805  0.0595 -0.0417
    1W        W39803   6.680   8.741   8.770 -0.1736  0.0568  0.0301
    1W        W39804   5.865  22.446   1.611 -0.1816 -0.1960  0.0969
    1W        W39805   8.187   7.223   9.683  0.1209  0.0247  0.0107
    1W        W39806   0.069   8.057   7.159 -0.0443 -0.3641  0.1795
    1W        W39807  28.300  15.809   6.180  0.2195  0.0533  0.0274
    1W        W39808  19.679  18.291   7.218  0.3718  0.0216  0.0982
    1W        W39809   8.474  14.884   2.538 -0.2380 -0.4744 -0.0422
    1W        W39810  12.253  15.429   7.181 -0.0571 -0.0644  0.3293
    1W        W39811  14.631   0.282   3.233  0.1741 -0.1372 -0.0549
    1W        W39812  26.965   1.150   0.622 -0.0192 -0.3004 -0.2344
    1W        W39813   4.256  25.214   7.788  0.1697 -0.3467 -0.1304
    1W        W39814   8.411  24.665   0.729  0.0251 -0.0274 -0.2232
    1W        W39815  10.869  14.747   1.054 -0.2541  0.0718  0.0554
    1W        W39816   7.943  18.449   0.330 -0.1810  0.1451  0.1489
    1W        W39817  19.022  25.120   2.265  0.0443  0.1046  0.1067
    1W        W39818  27.745  27.555   1.537 -0.1518 -0.1961 -0.0673
    1W        W39819  25.591  21.812   0.710  0.1625 -0.3893  0.2978
    1W        W39820  20.571   8.985   9.467  0.0514 -0.0921  0.1797
    1W        W39821   1.429   8.445   6.966  0.3831  0.0843 -0.4645
    1W        W39822  11.855  22.853   5.906  0.1590 -0.0744 -0.0061
    1W        W39823  15.613  24.094   9.233  0.0590  0.1085  0.0232
    1W        W39824  28.421   6.709   0.358 -0.0665  0.0352  0.4323
    1W        W39825  23.563  24.564   2.329  0.3431 -0.3643 -0.1731
    1W        W39826  27.845  26.845   1.265 -0.0822 -0.2743 -0.0482
    1W        W39827   4.048   9.521   6.551 -0.1437 -0.0532 -0.1414
    1W        W39828  11.203   6.694   2.408 -0.2266  0.0458 -0.0814
    1W        W39829  23.844   4.268   6.723 -0.3187 -0.0838 -0.1971
    1W        W39830  29.137  15.726   8.828  0.1159  0.0779  0.1389
    1W        W39831   3.199  16.754   5.846  0.0273 -0.1015  0.0754
    1W        W39832  13.294  25.984   0.298 -0.1638  0.1196 -0.1862
    1W        W39833   0.136   4.123   7.416  0.2620 -0.1994 -0.2384
    1W        W39834   1.888  25.853   7.759  0.1477 -0.0067 -0.0889
    1W        W39835   3.659  27.400   7.268  0.4302  0.1463  0.2127
    1W        W39836  26.426   5.403   7.897  0.0736  0.0549  0.0369
    1W        W39837  28.330  23.567   1.956  0.3235  0.1031  0.1149
    1W        W39838  23.678  28.191   6.832  0.1818  0.0345  0.1424
    1W        W39839  21.807  21.194   1.825  0.0769 -0.0016 -0.0554
    1W        W39840   4.586  26.561   3.038 -0.1054 -0.2494 -0.1697
    1W        W39841  12.308  20.560   8.748 -0.2019  0.0802 -0.0023
    1W        W39842   7.696  13.260   7.738  0.0609  0.3037 -0.1716
    1W        W39843  25.867  21.008   0.393  0.1771  0.3590  0.0842
    1W        W39844  23.023   0.457   7.367 -0.1226 -0.1716 -0.1841
    1W        W39845  15.321  24.305   0.296  0.0990 -0.1659  0.2095
    1W        W39846  18.921  18.631   1.487 -0.1511 -0.0135 -0.0181
    1W        W39847  11.666   9.590   8.851 -0.1546  0.0573 -0.2021
    1W        W39848  17.710  22.035   1.212  0.1726  0.0522 -0.0550
    1W        W39849  22.557  11.840   0.453 -0.1961  0.1320  0.0639
    1W        W39850  11.390   9.125   8.833 -0.0126 -0.1286  0.0831
    1W        W39851   4.421   3.483   6.885  0.0002  0.1955 -0.2215
    1W        W39852   5.848  16.905   2.228  0.3507 -0.0583  0.0848
    1W        W39853   6.400  25.021   7.953  0.2205  0.2646  0.3377
    1W        W39854   1.404  28.017   0.770  0.0028 -0.3462 -0.0633
    1W        W39855  26.022  11.226   0.213 -0.0955  0.0858 -0.1093
    1W        W39856  28.637  17.059   9.689  0.0453  0.0494 -0.1095
    1W        W39857   6.006  13.875   7.213  0.1086  0.2066 -0.0560
    1W        W39858  15.829  15.256   9.396 -0.2236 -0.0533  0.0087
    1W        W39859  13.699   2.030   2.681 -0.0470  0.2153 -0.0708
    1W        W39860  18.249  25.878   0.254 -0.2358  0.0256  0.0923
    1W        W39861  17.753  18.652   9.401  0.3632 -0.4717  0.1164
    1W        W39862  16.754   7.107   1.562 -0.0442  0.0108  0.3620
    1W        W39863   3.503   6.402   1.748 -0.0429 -0.1039 -0.1138
    1W        W39864  17.348  28.151   0.712  0.0958  0.0855 -0.0051
    1W        W39865  25.973   5.208   8.126 -0.1286  0.3738  0.1277
    1W        W39866   5.344   0.830   7.859 -0.0691 -0.0171 -0.0443
    1W        W39867   5.045   1.124   2.575 -0.2044 -0.0523 -0.0820
    1W        W39868   6.957  10.089   7.340  0.1325 -0.2593 -0.1239
    1W        W39869   4.106  15.680   1.006 -0.1273 -0.0193 -0.0236
    1W        W39870  13.521  29.008   8.960  0.5016  0.0492  0.0338
    1W        W39871  24.992  25.442   7.522 -0.3384 -0.0222 -0.0610
    1W        W39872  28.752  26.474   0.393  0.1925 -0.0173 -0.0283
    1W        W39873  18.579  27.328   2.492  0.1271  0.2027  0.0275
    1W        W39874  22.124   0.663   0.181 -0.1013 -0.0031  0.1603
    1W        W39875  15.996  27.841   2.563  0.1328 -0.2489  0.3630
    1W        W39876   3.545   9.358   3.146  0.3683  0.0175  0.1693
    1W        W39877  12.219  27.433   8.143  0.4077  0.0487 -0.0391
    1W        W39878   7.142   4.063   8.555 -0.1794 -0.0124  0.3201
    1W        W39879  26.089  19.047   6.916 -0.1690 -0.2260  0.1608
    1W        W39880  26.736  23.531   0.716  0.2777  0.3640 -0.1835
    1W        W39881  21.792  20.316   3.933  0.3249 -0.0959  0.1635
    1W        W39882   7.687  18.783   8.554  0.1445 -0.1102  0.1460
    1W        W39883  15.937  28.383   3.458 -0.0048  0.1851 -0.4836
    1W        W39884  13.685   3.428   7.561  0.0003 -0.2036  0.1743
    1W        W39885  19.202  17.901   2.109  0.1787  0.2227  0.0646
    1W        W39886   6.463  25.837   0.884 -0.0088 -0.1022 -0.1042
    1W        W39887   9.794  24.330   7.727 -0.0022  0.0146  0.1026
    1W        W39888  18.022  16.752   7.767 -0.0830  0.0219  0.0540
    1W        W39889  27.128  21.744   6.967  0.1198 -0.1540  0.2217
    1W        W39890  26.830   6.076   0.077 -0.3508 -0.2449 -0.0374
    1W        W39891  18.226   9.632   1.779  0.1056 -0.0043 -0.0173
    1W        W39892  18.905  25.494   6.860  0.0527 -0.2495  0.1700
    1W        W39893   0.863   8.228   7.689  0.0891 -0.1509 -0.1146
    1W        W39894  28.951  13.612   2.021  0.1594  0.1749  0.0385
    1W        W39895  15.940  10.019   8.349 -0.1141 -0.1561 -0.1704
    1W        W39896   1.652  23.907   2.517 -0.1162  0.0250  0.2828
    1W        W39897  15.527   8.862   8.579  0.1703 -0.3347 -0.0593
    1W        W39898   3.405  28.281   0.525 -0.6179 -0.3283 -0.1801
    1W        W39899   3.180   0.860   2.818  0.2308 -0.0636 -0.0670
    1W        W39900  21.390  14.984   7.942  0.0037 -0.1345 -0.0825
    1W        W39901  20.058   7.581   0.331 -0.2520  0.2496  0.0308
    1W        W39902  26.096  15.301   2.157 -0.2387 -0.0916  0.0432
    1W        W39903  25.913   3.548   2.297  0.2655  0.0921 -0.0101
    1W        W39904  18.761  22.589   2.002  0.0631 -0.0666  0.0409
    1W        W39905   3.555  12.295   8.407  0.1558 -0.4911 -0.0777
    1W        W39906  21.496  23.667   8.081 -0.0030  0.0335 -0.2524
    1W        W39907   7.761   8.620   1.163  0.0718  0.1650  0.0371
    1W        W39908  18.327   1.373   2.318 -0.2141 -0.1961  0.1013
    1W        W39909   8.448  26.544   7.051 -0.1113  0.2657 -0.3204
    1W        W39910   3.540   3.707   7.251  0.0087  0.0893  0.0012
    1W        W39911  27.552  20.038   8.086 -0.1997  0.0841  0.1196
    1W        W39912   8.610   4.345   0.914  0.2599  0.0380  0.0502
    1W        W39913   0.627   1.964   7.064 -0.1720  0.0892  0.3864
    1W        W39914  12.224  19.830   7.798 -0.0583 -0.0399 -0.0325
    1W        W39915  23.096   7.094   0.641  0.0945 -0.0348  0.1363
    1W        W39916  25.655  24.562   9.455 -0.0915 -0.1014  0.3075
    1W        W39917  21.834   1.472   8.780  0.0641 -0.3482  0.2560
    1W        W39918  12.130  25.997   3.193  0.3304  0.1261 -0.0824
    1W        W39919   2.190   9.110   6.056 -0.1901 -0.0480 -0.0471
    1W        W39920  18.833  20.994   1.879 -0.0869 -0.3403  0.0101
    1W        W39921   8.389   2.867   1.704 -0.0079  0.1495  0.3671
    1W        W39922   2.618   7.377   7.913 -0.0341  0.2454 -0.0246
    1W        W39923   4.339   2.599   1.583 -0.0631  0.2051  0.0038
    1W        W39924  27.708  21.247   9.292  0.0280 -0.1115  0.0015
    1W        W39925   6.350  22.533   1.513  0.0203 -0.1915 -0.1526
    1W        W39926   9.159  23.239   1.780  0.0392  0.1837  0.0958
    1W        W39927  26.594  12.346   6.766 -0.1026 -0.0364  0.1331
    1W        W39928  27.471   8.600   0.541  0.1247 -0.0872 -0.0462
    1W        W39929  17.267  22.392   0.502 -0.0727 -0.0918 -0.1952
    1W        W39930  24.660  16.440   0.219  0.0877 -0.1501 -0.0018
    1W        W39931  10.668  28.619   8.912  0.1701 -0.0621  0.0370
    1W        W39932  28.851  27.185   7.939  0.1935 -0.1486 -0.1378
    1W        W39933  13.582   1.937   7.780  0.2504 -0.2137  0.1179
    1W        W39934  28.565  24.269   6.800 -0.2771 -0.1570  0.1470
    1W        W39935  10.828  16.868   1.420 -0.0439  0.1533  0.0295
    1W        W39936   4.049   5.148   8.830  0.0063  0.4365  0.0707
    1W        W39937  11.641  22.112   0.526  0.2022 -0.0883  0.0149
    1W        W39938   3.928   2.846   6.246  0.0932 -0.1157  0.1076
    1W        W39939   8.712   5.734   3.696 -0.1711 -0.2845 -0.2445
    1W        W39940  14.494  19.779   7.497 -0.2956  0.0537  0.0649
    1W        W39941   3.615  18.571   7.242  0.1576  0.2897 -0.2486
    1W        W39942  11.840   6.850   8.721 -0.0145 -0.1181  0.0141
    1W        W39943   7.298  10.653   8.564  0.3554  0.3264 -0.2451
    1W        W39944  10.792  23.412   9.542  0.1042 -0.1789 -0.3885
    1W        W39945   1.526  15.337   9.034  0.1451 -0.0396  0.1512
    1W        W39946  19.979   6.807   1.451 -0.0574  0.1087  0.0895
    1W        W39947   1.529  18.901   6.271 -0.2199  0.2331  0.1336
    1W        W39948  18.425  12.370   0.755 -0.3506 -0.1697 -0.1236
    1W        W39949  11.737  24.496   7.183 -0.1808 -0.0904 -0.0062
    1W        W39950  28.868  16.717   0.831  0.1865 -0.1645  0.2190
    1W        W39951  25.416   0.430   9.470  0.1485  0.2597  0.1647
    1W        W39952  25.358  29.089   0.888 -0.2588 -0.4290 -0.0631
    1W        W39953  13.397  12.231   8.015  0.2610  0.0675  0.4627
    1W        W39954   5.883   0.897   0.010  0.0357  0.1873  0.2787
    1W        W39955  24.326   4.050   0.345 -0.0460 -0.0967 -0.0615
    1W        W39956  23.177   4.668   6.818  0.1018  0.3919  0.2213
    1W        W39957  16.528   0.158   0.197 -0.2316 -0.0741 -0.1307
    1W        W39958  20.980  28.357   9.177 -0.1061 -0.0041 -0.0734
    1W        W39959  19.112  10.798   9.568 -0.1331  0.1450  0.1526
    1W        W39960  26.884   2.641   8.048  0.1639 -0.1046  0.2167
    1W        W39961  16.826  18.165   8.381 -0.1976 -0.0987 -0.1098
    1W        W39962  27.494   8.424   7.234 -0.0344  0.0191 -0.0563
    1W        W39963  23.912   4.059   5.266 -0.1728 -0.3260 -0.2311
    1W        W39964   5.539   6.825   6.111 -0.1033  0.0368  0.0937
    1W        W39965   4.522  15.978   7.455  0.0470 -0.1249  0.0794
    1W        W39966  14.140  12.754   0.622  0.2365 -0.0981  0.0499
    1W        W39967   6.763   1.745   6.968 -0.1162 -0.2687 -0.0493
    1W        W39968   2.063  12.810   1.356  0.3530  0.3469 -0.1858
    1W        W39969  19.366  27.468   3.383 -0.0196  0.0217 -0.1826
    1W        W39970   7.591   2.250   7.189 -0.2512 -0.0573 -0.0687
    1W        W39971   7.894   1.353   1.078  0.1239 -0.0665  0.0920
    1W        W39972  28.374  14.358   5.178  0.0036 -0.0364  0.1785
    1W        W39973   3.203  10.537   1.598  0.0640  0.0372 -0.0958
    1W        W39974   2.822  21.627   7.743 -0.1781  0.1268  0.2134
    1W        W39975   9.256  14.342   2.649 -0.1282  0.0531  0.1419
    1W        W39976  10.214  25.263   9.203 -0.1039  0.0608  0.2318
    1W        W39977  29.287  27.491   7.183  0.3702  0.0774 -0.2615
    1W        W39978   4.769   3.622   7.284 -0.1031 -0.1130  0.1544
    1W        W39979  15.560  12.196   9.279 -0.1502 -0.0268 -0.0714
    1W        W39980  16.451  22.437   8.315 -0.1774 -0.2409 -0.1374
    1W        W39981   6.683   9.116   7.069  0.0038  0.1082  0.1555
    1W        W39982  17.093   4.057   2.871  0.0443  0.3284 -0.3955
    1W        W39983  13.422  18.928   1.482 -0.0756 -0.1154  0.3040
    1W        W39984   2.288   7.351   6.913 -0.1553 -0.2223  0.2002
    1W        W39985   8.804  20.523   0.768 -0.1264 -0.3459  0.4458
    1W        W39986  25.833   5.182   7.587 -0.1193  0.0804  0.0676
    1W        W39987  14.049  23.834   7.186 -0.3583  0.2445 -0.0938
    1W        W39988  17.652   6.647   0.820 -0.1630 -0.0058  0.1448
    1W        W39989  23.893  15.282   7.377 -0.2973  0.1182 -0.0363
    1W        W39990  23.379  22.798   8.083 -0.2255 -0.0046 -0.0854
    1W        W39991  14.401   0.948   9.398  0.1373  0.2159  0.1095
    1W        W39992  26.491  21.743   9.307 -0.1752  0.0942 -0.2010
    1W        W39993  25.850  28.326   6.364  0.0195  0.1249 -0.2742
    1W        W39994  25.252  25.958   6.291  0.4080  0.0872 -0.1832
    1W        W39995   6.190  17.639   6.693 -0.1813  0.1571 -0.0242
    1W        W39996   5.711  23.010   5.382 -0.1244 -0.0251  0.0852
    1W        W39997  18.551  24.080   1.266 -0.0910  0.1107 -0.0594
    1W        W39998  21.399  13.780   1.892  0.4055  0.1125 -0.1104
    1W        W39999  23.065  26.366   1.588  0.1022 -0.1533  0.4117
    1W        W40000  20.152  19.495   0.349 -0.1890  0.0956 -0.1029
    1W        W40001   8.659  29.166   0.373 -0.1656 -0.1464 -0.1298
    1W        W40002  15.629  22.496   8.861  0.2388 -0.0972 -0.1750
    1W        W40003  17.417  17.042   7.775 -0.0860 -0.2081  0.1992
    1W        W40004  17.006  20.920   0.028 -0.0220  0.1597 -0.0741
    1W        W40005   2.896  22.555   0.705  0.2310  0.0148  0.0834
    1W        W40006   3.937  13.836   1.815 -0.0100 -0.2426  0.0808
    1W        W40007   2.497  25.944   9.128  0.0703 -0.1904 -0.2084
    1W        W40008  22.240   6.210   2.607 -0.2735  0.2365 -0.1213
    1W        W40009  11.595   7.530   2.379  0.0698  0.0257  0.0911
    1W        W40010  21.293  24.872   7.378 -0.1108  0.3032 -0.2021
    1W        W40011  24.296   9.373   2.946  0.0919 -0.3322 -0.1049
    1W        W40012   6.829  16.492   0.919  0.1394  0.0871  0.0890
    1W        W40013   5.128  21.573   7.703 -0.1460  0.0909 -0.0753
    1W        W40014   9.299  27.277   2.800 -0.1136  0.3155 -0.0791
    1W        W40015   5.837  15.477   0.197  0.2972 -0.0082  0.0027
    1W        W40016  24.432   8.889   2.756  0.2599  0.1360  0.0692
    1W        W40017  23.743  21.558   2.194  0.1314 -0.1587  0.0359
    1W        W40018  12.868  16.304   1.892 -0.1264  0.1001 -0.3063
    1W        W40019  13.563   6.532   9.602 -0.1571  0.1101 -0.1442
    1W        W40020   9.284   8.234   7.386 -0.1409 -0.0195  0.0451
    1W        W40021  24.561  27.924   1.125 -0.0696 -0.1043  0.1475
    1W        W40022  12.999   4.035   7.579 -0.0427 -0.2376 -0.2253
    1W        W40023  11.153  13.226   8.139  0.0938 -0.2493 -0.0124
    1W        W40024  26.442  27.503   1.832  0.0734 -0.0533  0.2770
    1W        W40025  21.071  12.600   0.743  0.0490  0.0682  0.0319
    1W        W40026  11.901  10.127   7.706 -0.1670 -0.0790 -0.0545
    1W        W40027  15.724   6.991   0.342  0.0515 -0.0595  0.1819
    1W        W40028   6.408  19.142   7.051 -0.2089 -0.0976  0.2165
    1W        W40029  18.998  17.469   8.436 -0.1753 -0.1675 -0.0006
    1W        W40030  16.472  13.765   2.046  0.0273 -0.2705  0.0009
    1W        W40031  15.319  19.411   0.346  0.1237  0.2256  0.0580
    1W        W40032  13.996   9.898   0.083  0.1163 -0.2548 -0.3235
    1W        W40033  15.585   3.509   8.754 -0.0493  0.1137  0.1007
    1W        W40034   9.473  26.844   3.683 -0.1715 -0.1461  0.0466
    1W        W40035  10.781  28.286   1.123 -0.1078  0.0065  0.0985
    1W        W40036  27.932  25.983   6.626  0.1387 -0.0297 -0.0427
    1W        W40037  22.518   7.697   9.091  0.0230  0.3024  0.0909
    1W        W40038   2.625  14.938   0.145  0.1402 -0.3074  0.0026
    1W        W40039   1.891  14.675   1.214  0.3282  0.1749  0.1631
    1W        W40040  29.263  26.153   8.548  0.0829 -0.1239 -0.1680
    1W        W40041  16.134   3.112   2.211  0.2085  0.1252 -0.1599
    1W        W40042  18.316  21.558   2.847  0.1108  0.1148  0.0726
    1W        W40043  25.877  16.923   9.334  0.2139 -0.2328 -0.0958
    1W        W40044  27.756  18.507   8.716 -0.0774  0.0088  0.1442
    1W        W40045   4.477  19.794   1.096 -0.1941  0.2207  0.1426
    1W        W40046   4.104  18.241   9.404  0.3929  0.2929 -0.2675
    1W        W40047   2.110  19.764   9.312 -0.1726  0.0357 -0.1595
    1W        W40048  21.172   7.286   1.183 -0.2544 -0.0821 -0.2482
    1W        W40049  12.282  12.939   0.247 -0.2376  0.0486 -0.1959
    1W        W40050   1.695   7.811   1.297  0.1174  0.0696  0.0941
    1W        W40051   8.574   7.204   7.767  0.1307  0.0835  0.2562
    1W        W40052   1.000   9.044   2.320 -0.0544 -0.2536 -0.0844
    1W        W40053  27.240   0.979   0.234 -0.1607  0.1162 -0.0002
    1W        W40054  24.947  10.911   1.185  0.0643  0.1120  0.0055
    1W        W40055  21.675  25.320   0.958  0.1863  0.0131 -0.2343
    1W        W40056  19.771   0.136   7.721  0.2948 -0.0338 -0.0729
    1W        W40057  22.895   9.208   1.201  0.4858 -0.0616 -0.1008
    1W        W40058  12.467  27.766   9.494 -0.0643  0.0448 -0.1689
    1W        W40059  25.543  14.346   6.629  0.1761 -0.2843 -0.0836
    1W        W40060  24.457  16.820   0.581 -0.0459  0.3035  0.0214
    1W        W40061  25.877  24.506   1.376  0.0795  0.0187 -0.0468
    1W        W40062  27.825   0.631   7.509  0.2568 -0.2422 -0.0489
    1W        W40063   8.751   5.004   3.490  0.0947 -0.1603  0.0576
    1W        W40064  17.731  12.994   0.828 -0.0503  0.1918 -0.1005
    1W        W40065  22.890  15.328   1.361  0.0136 -0.2120  0.1273
    1W        W40066  15.675  14.242   0.106  0.0645 -0.2274  0.1095
    1W        W40067  14.271   0.403   1.557  0.2265  0.1756  0.1471
    1W        W40068   7.091  17.586   0.682  0.1243  0.0840  0.2093
    1W        W40069  27.003  25.014   8.614 -0.0068  0.1179 -0.2399
    1W        W40070   1.788  21.071   8.128 -0.1743 -0.3189  0.0839
    1W        W40071   1.100  12.537   1.108 -0.2388 -0.0112 -0.0240
    1W        W40072  21.601   5.221   7.512 -0.0240 -0.0592  0.1126
    1W        W40073  11.527  26.942   2.795  0.1833  0.0946 -0.1195
    1W        W40074  23.462  17.793   8.051  0.2363 -0.2767  0.0338
    1W        W40075  28.357   0.765   7.617  0.0236 -0.0771 -0.2414
    1W        W40076   5.152  14.702   6.891  0.0307 -0.0101 -0.2566
    1W        W40077  22.213  28.197   9.540  0.0798 -0.0528  0.0277
    1W        W40078  19.082   2.452   8.222  0.0493  0.1257  0.3389
    1W        W40079   2.540  17.387   7.535 -0.1083 -0.0267  0.0744
    1W        W40080  11.415  28.185   7.498  0.0176  0.1609 -0.0034
    1W        W40081  11.362   6.219   0.603 -0.1045 -0.0465 -0.0975
    1W        W40082  26.375  26.576   9.052 -0.0545 -0.0254 -0.0342
    1W        W40083  21.960   2.214   9.224  0.0817  0.0097 -0.1419
    1W        W40084  25.072  19.325   0.901  0.0016 -0.0183  0.0970
    1W        W40085   3.144  13.867   9.013 -0.0781 -0.3880  0.0681
    1W        W40086  20.455  20.114   8.020  0.1535  0.1527 -0.1630
    1W        W40087   2.458  14.358   0.794 -0.1768 -0.1148  0.1671
    1W        W40088  19.592  21.554   8.574  0.0475  0.0393 -0.2489
    1W        W40089  22.274   5.241   0.570 -0.1856  0.0960 -0.2923
    1W        W40090  14.482  14.838   0.092 -0.1237 -0.0783 -0.2827
    1W        W40091   7.026  22.953   6.146  0.1668 -0.0675 -0.0395
    1W        W40092  29.054   7.220   8.531 -0.3125  0.0114  0.3261
    1W        W40093   8.898  18.043   0.515  0.0781  0.1018  0.1806
    1W        W40094   8.140  17.179   2.311  0.2715 -0.2407  0.1305
    1W        W40095  14.211   0.671   2.984 -0.2372 -0.0217 -0.1149
    1W        W40096  23.183  18.258   6.612 -0.0375 -0.0157 -0.0071
    1W        W40097  23.012   5.904   3.493 -0.1030  0.0835  0.0132
    1W        W40098  24.738  23.769   2.162 -0.2599  0.1389  0.0900
    1W        W40099  19.426  28.196   1.373  0.3327 -0.4841  0.2617
    1W        W40100  11.787  22.400   8.352  0.2108 -0.1029 -0.0322
    1W        W40101  28.026   8.072   7.236  0.2572 -0.2742  0.2419
    1W        W40102  19.727  11.438   8.657  0.0025 -0.2119 -0.0010
    1W        W40103   4.917  27.023   8.301  0.1863  0.2862  0.3501
    1W        W40104  14.229  24.183   7.559 -0.0110 -0.0395  0.1555
    1W        W40105  20.154  23.444   8.800  0.1511 -0.0915  0.0040
    1W        W40106  18.929   8.926   1.666 -0.0582  0.0756 -0.1517
    1W        W40107   9.276  21.796   0.455 -0.1035 -0.1894 -0.0029
    1W        W40108   5.908  27.482   2.046  0.1787 -0.0400  0.2020
    1W        W40109  26.342  20.183   2.054 -0.2157  0.2392 -0.1230
    1W        W40110  24.576  12.039   2.254  0.0509  0.1484 -0.1176
    1W        W40111  14.198  16.499   2.111 -0.3663  0.2093  0.2577
    1W        W40112  14.475   9.302   2.765 -0.2588  0.0421  0.0651
    1W        W40113  19.010  17.366   8.956  0.2108  0.2893  0.2124
    1W        W40114  25.706  12.371   5.564  0.0283  0.0790  0.1604
    1W        W40115  26.894  22.982   2.054 -0.0732  0.2431 -0.1968
    1W        W40116   8.447  28.849   9.690  0.2151 -0.5244 -0.0382
    1W        W40117  13.130  25.985   2.705 -0.1435  0.3271  0.1869
    1W        W40118  19.957  25.573   1.017 -0.0625 -0.2420 -0.2737
    1W        W40119  17.782   8.013   0.531 -0.0789 -0.2600  0.2005
    1W        W40120   4.629  21.927   0.700  0.2380 -0.3348  0.2754
    1W        W40121   8.433   1.827   1.931 -0.2150  0.0070 -0.1344
    1W        W40122   5.194  25.872   6.781  0.0921 -0.1858 -0.0276
    1W        W40123  18.219  19.679   1.783  0.1219 -0.0706 -0.1036
    1W        W40124   4.336   5.480   0.246 -0.0047  0.1923 -0.0283
    1W        W40125  28.845  22.903   0.279 -0.1824 -0.2292  0.0165
    1W        W40126   8.904  28.087   0.886  0.0631  0.1375  0.2829
    1W        W40127  24.330  22.619   8.129  0.1969  0.3776 -0.1243
    1W        W40128  22.047   7.507   1.270 -0.1403  0.0372 -0.2472
    1W        W40129  25.436  13.143   0.343 -0.3502 -0.0076  0.2480
    1W        W40130   5.371  12.076   8.947 -0.0206 -0.3112 -0.2641
    1W        W40131  21.897  23.002   3.771  0.0759 -0.0533 -0.1097
    1W        W40132   9.790   2.629   8.945 -0.1518  0.4517 -0.1213
    1W        W40133  20.469  21.798   6.849  0.1758  0.2370  0.1374
    1W        W40134  10.532  15.230   0.261 -0.3793 -0.0964 -0.0617
    1W        W40135  19.562   3.077   8.511  0.2974 -0.1441 -0.0068
    1W        W40136  10.148   9.181   2.584  0.2262  0.0358  0.1308
    1W        W40137   8.733  19.368   9.121 -0.0476  0.1661 -0.3319
    1W        W40138   8.947  23.333   0.492  0.0129 -0.1220  0.0573
    1W        W40139  13.422   0.988   8.669  0.0492  0.1595 -0.0950
    1W        W40140   6.832   3.799   2.309 -0.0933 -0.0177 -0.1737
    1W        W40141  27.286   6.408   9.052  0.0531 -0.2715  0.0931
    1W        W40142  17.930  23.843   8.905 -0.2913 -0.2418 -0.0903
    1W        W40143   1.164  29.059   6.666  0.1607  0.1842  0.0585
    1W        W40144   4.119   5.635   8.227 -0.0968 -0.2140 -0.1780
    1W        W40145   0.821  20.675   2.041  0.0353  0.0755  0.0858
    1W        W40146  21.066  11.305   0.546 -0.1249  0.0581 -0.0892
    1W        W40147   9.581  26.437   1.891 -0.2149  0.1048  0.1542
    1W        W40148   0.778  14.091   0.272  0.0561 -0.2616 -0.0479
    1W        W40149  15.088  20.857   7.312 -0.3579 -0.0079 -0.1181
    1W        W40150  28.318  12.696   8.153  0.1727 -0.1741  0.2209
    1W        W40151  13.061   9.046   2.361 -0.0550  0.0349 -0.1321
    1W        W40152  19.661   3.213   6.808 -0.1226 -0.1178 -0.1353
    1W        W40153  24.449   1.959   9.042 -0.1725 -0.1457 -0.0381
    1W        W40154  26.364   1.735   0.956  0.2755 -0.0029  0.0220
    1W        W40155  10.351   2.768   7.280 -0.0511  0.3057 -0.1274
    1W        W40156   1.884   1.031   3.097  0.2539 -0.1961  0.1821
    1W        W40157  22.300  21.630   1.931 -0.1070  0.0980  0.3060
    1W        W40158  16.312  16.248   7.124 -0.1133  0.1784  0.0174
    1W        W40159  16.997  16.388   2.519 -0.2118 -0.1646 -0.3603
    1W        W40160  28.652  14.656   6.881 -0.0400  0.2572  0.2124
    1W        W40161  24.146  17.163   7.407 -0.1751 -0.1477  0.1612
    1W        W40162   0.709  11.272   6.823  0.1964  0.0587  0.0655
    1W        W40163   3.021  12.239   8.381  0.2025 -0.1010  0.0437
    1W        W40164  12.623  21.465   1.956  0.1144  0.2172 -0.0180
    1W        W40165  22.192   3.061   0.689 -0.0276 -0.0563 -0.0106
    1W        W40166   3.603  24.500   1.205  0.3432 -0.1282  0.0231
    1W        W40167  23.368  28.986   8.524 -0.0426 -0.4454  0.1528
    1W        W40168  19.480   4.660   1.976 -0.0849 -0.0635  0.4945
    1W        W40169  21.851  19.563   1.150 -0.1351  0.0682 -0.0731
    1W        W40170  13.725   4.156   2.815  0.2214  0.3487 -0.1807
    1W        W40171  26.202  12.121   1.761  0.0721  0.5216 -0.4088
    1W        W40172  24.169  26.064   2.080  0.2144  0.1677 -0.1455
    1W        W40173  11.321  25.406   7.577  0.2692 -0.1671 -0.0428
    1W        W40174  17.932   1.903   7.223 -0.1517  0.0502  0.4334
    1W        W40175  17.390   0.247   2.592 -0.1978 -0.1913 -0.1167
    1W        W40176  19.912  24.723   9.076  0.0737 -0.0513  0.1625
    1W        W40177  20.573   1.135   6.556 -0.0223  0.0264  0.2038
    1W        W40178  14.172   9.306   9.525  0.1467  0.0395  0.1704
    1W        W40179   0.432  11.643   0.780  0.2757 -0.0684  0.3077
    1W        W40180  16.924  12.076   2.339  0.4872 -0.0019  0.0456
    1W        W40181  14.638  27.130   0.408  0.2242  0.1123 -0.0536
    1W        W40182  18.433   9.012   8.809 -0.1707 -0.2164 -0.3136
    1W        W40183   4.166   9.330   1.921 -0.1180  0.0965  0.2155
    1W        W40184   3.356   8.412   2.087  0.0827 -0.4855 -0.2950
    1W        W40185   7.631  14.035   1.634  0.2146 -0.0180  0.2691
    1W        W40186  12.253   9.326   1.899 -0.0485 -0.1013 -0.0190
    1W        W40187  23.894  18.797   8.021  0.1497 -0.1411  0.2226
    1W        W40188  21.834   5.898   6.905  0.5542  0.5497 -0.0615
    1W        W40189  14.704  21.898   9.531  0.2083  0.1765 -0.1048
    1W        W40190  25.981   6.653   1.342  0.0754 -0.2031  0.0256
    1W        W40191  14.722  24.444   7.577 -0.0102 -0.0121 -0.0037
    1W        W40192   9.706   6.931   8.242 -0.0411 -0.0199 -0.1498
    1W        W40193   4.717   5.228   2.471  0.0183 -0.0141  0.0753
    1W        W40194  24.122   7.730   0.776 -0.2445  0.3429 -0.2101
    1W        W40195  14.103   5.922   0.565  0.1398 -0.0810 -0.0397
    1W        W40196  13.712   1.075   8.227  0.2739  0.1197 -0.2536
    1W        W40197  19.232   6.381   2.946 -0.1191 -0.0904  0.1985
    1W        W40198  11.431   6.864   7.114  0.0169  0.0685 -0.0316
    1W        W40199  24.947  16.175   7.314 -0.3473  0.0283 -0.0510
    1W        W40200  15.809  22.004   7.132  0.1275  0.1140 -0.1584
    1W        W40201  14.527  15.225   8.581  0.1111 -0.2760  0.0266
    1W        W40202   7.164  11.936   8.887  0.2665  0.0477 -0.0549
    1W        W40203  26.263  18.729   1.835  0.0073 -0.1447  0.2458
    1W        W40204   5.215  18.759   6.954  0.3028  0.0746  0.1729
    1W        W40205  16.056  19.682   1.387  0.1784  0.0058  0.0422
    1W        W40206   2.579  22.263   0.412  0.1078 -0.1629 -0.0114
    1W        W40207  28.627  18.112   6.902  0.0905 -0.2170 -0.2306
    1W        W40208  11.498   5.551   1.533 -0.2475 -0.1881 -0.1765
    1W        W40209  18.390  13.101   9.151  0.2363 -0.3803 -0.0050
    1W        W40210  12.201  20.024   0.345  0.0506  0.1917 -0.0371
    1W        W40211   2.433  16.808   7.005  0.0067 -0.2323 -0.1905
    1W        W40212  11.579  20.570   0.914  0.0810 -0.1917  0.3351
    1W        W40213  11.047  21.099   9.588 -0.0722  0.1375 -0.2525
    1W        W40214  23.329  17.121   6.738 -0.0013 -0.0986 -0.2906
    1W        W40215  13.327  19.032   2.239  0.0571  0.1890 -0.1592
    1W        W40216  19.472   4.512   1.149  0.3508 -0.0972  0.4387
    1W        W40217  15.076  24.754   0.164 -0.2594  0.1339 -0.0750
    1W        W40218   0.495   2.681   9.685  0.0633 -0.1291 -0.2088
    1W        W40219   7.752   2.717   9.496  0.0954 -0.0265  0.0264
    1W        W40220   9.812   2.394   1.006  0.0157 -0.5377  0.0266
    1W        W40221  14.768   8.579   0.964  0.2879 -0.1386  0.0306
    1W        W40222   5.368  28.241   3.723  0.1458  0.3826  0.0505
    1W        W40223   1.732   0.785   2.717  0.1268  0.0621  0.1891
    1W        W40224   0.115  24.303   8.930 -0.0076  0.1994 -0.1102
    1W        W40225  12.173   6.883   7.917 -0.2929 -0.0129 -0.5106
    1W        W40226  16.644  20.253   2.581  0.0616  0.2565 -0.4724
    1W        W40227  22.346   5.006   6.779 -0.1744 -0.1022  0.4731
    1W        W40228   2.017   2.208   7.900 -0.3063 -0.0529  0.4315
    1W        W40229   6.764  22.362   8.174  0.1623 -0.3183  0.2886
    1W        W40230   4.998  19.622   8.024  0.1378 -0.0210  0.2156
    1W        W40231  17.031  12.095   1.106 -0.3414  0.1357 -0.0941
    1W        W40232  23.621  26.309   7.884 -0.0370 -0.0626  0.1209
    1W        W40233  20.541  13.176   0.210 -0.2601  0.1458  0.1125
    1W        W40234  19.828   9.287   2.349 -0.0397 -0.1674 -0.0292
    1W        W40235  14.042   3.216   0.837  0.0544  0.0804  0.0395
    1W        W40236   7.007  18.047   1.466  0.1650  0.1745 -0.1706
    1W        W40237  26.605  20.144   6.418  0.2039 -0.1086  0.1859
    1W        W40238  14.326  20.597   2.283  0.0477  0.0674  0.0536
    1W        W40239  18.283  22.846   9.284 -0.0796 -0.2057 -0.0863
    1W        W40240  21.497   1.893   1.002 -0.0977 -0.2985 -0.1026
    1W        W40241  28.736  24.107   0.003 -0.1865 -0.0227 -0.0917
    1W        W40242   1.215  19.942   8.131 -0.1170 -0.2719  0.3773
    1W        W40243  19.479  23.655   9.371  0.1325 -0.2984 -0.1060
    1W        W40244   0.152  19.178   0.129  0.0242 -0.0046 -0.1701
    1W        W40245  15.552   8.123   2.740  0.1703 -0.0624  0.0067
    1W        W40246  14.864   1.477   8.653  0.0056  0.1693  0.1341
    1W        W40247  28.298  29.101   1.091  0.2180  0.2888 -0.1727
    1W        W40248  27.964  27.930   1.937  0.0082  0.3069  0.1212
    1W        W40249  25.194  22.403   9.307 -0.2802  0.0129 -0.2387
    1W        W40250  19.261  10.998   6.888 -0.3255 -0.0018  0.3826
    1W        W40251   1.580   0.891   0.873  0.0692 -0.3571  0.0921
    1W        W40252  24.604  17.852   2.475 -0.0120  0.6531 -0.3610
    1W        W40253  22.841   7.188   9.340  0.0401  0.2403 -0.0914
    1W        W40254  17.632  28.603   0.565 -0.1252  0.0386 -0.0065
    1W        W40255  20.270  19.753   2.091 -0.1543  0.0780 -0.3458
    1W        W40256  16.552  27.577   8.696  0.3451  0.2613  0.0700
    1W        W40257  11.218  23.125   1.604  0.0074  0.0095  0.1473
    1W        W40258   8.092  17.526   0.751  0.0947  0.1254  0.0555
    1W        W40259  10.609  24.842   9.194  0.0421  0.0444 -0.3022
    1W        W40260   8.134  14.734   0.805 -0.1759 -0.0810 -0.1798
    1W        W40261  19.888  25.532   7.197  0.0938  0.0803 -0.0013
    1W        W40262  19.938  14.151   7.827  0.2039  0.1560  0.0256
    1W        W40263   8.618   7.436   8.472 -0.1489  0.0269 -0.0099
    1W        W40264   3.149  26.573   6.955  0.1989 -0.1013  0.1871
    1W        W40265  28.402   5.631   7.619  0.1518  0.0097 -0.2248
    1W        W40266  24.048  24.340   1.281 -0.3058 -0.0313  0.0703
    1W        W40267  18.187  16.851   9.322  0.2473 -0.1378  0.1868
    1W        W40268   5.793  19.581   1.193  0.0128  0.4285  0.0522
    1W        W40269  29.181  25.724   9.103  0.0862  0.0145 -0.0241
    1W        W40270  18.028   7.359   1.693 -0.4286  0.4287  0.1196
    1W        W40271  10.173   8.993   8.438 -0.0774 -0.2606 -0.0232
    1W        W40272  20.258   9.804   7.539  0.2807 -0.1358 -0.1708
    1W        W40273  21.495  22.093   1.070  0.1105  0.0112 -0.0600
    1W        W40274   0.994  22.514   0.370  0.0908  0.0004 -0.0813
    1W        W40275  11.322  21.129   6.896 -0.5133  0.0442 -0.1141
    1W        W40276  19.640   4.185   7.936  0.6209 -0.0292 -0.0615
    1W        W40277   5.927  20.003   1.509  0.0614  0.1059 -0.0245
    1W        W40278  17.497   1.039   7.285 -0.0287 -0.0545 -0.1601
    1W        W40279  23.117  29.278   7.296 -0.2558  0.0913  0.0274
    1W        W40280   1.766  18.483   1.534 -0.0144 -0.2195 -0.0127
    1W        W40281  24.365  16.339   6.189  0.1302 -0.3224  0.3486
    1W        W40282  12.852   1.447   2.951  0.0712  0.0842  0.3580
    1W        W40283   5.842  13.591   8.185  0.1515  0.1376  0.0038
    1W        W40284  28.379  12.248   0.137  0.0564 -0.2782 -0.1292
    1W        W40285  10.401  28.294   8.176 -0.0067 -0.4408  0.1070
    1W        W40286  18.089   3.537   8.764 -0.1096  0.1014 -0.1318
    1W        W40287   3.082  27.443   7.400 -0.0348  0.2174  0.1046
    1W        W40288   8.546   5.295   1.480 -0.2220 -0.0216 -0.0634
    1W        W40289   3.738   4.699   7.096 -0.2376  0.2393  0.1327
    1W        W40290  12.515  23.682   8.463  0.0713  0.0363  0.1447
    1W        W40291  19.084   6.796   2.660  0.0387  0.3557 -0.2326
    1W        W40292   4.658   3.035   6.903  0.1488  0.1391  0.0981
    1W        W40293  25.635  18.915   6.641  0.3229  0.0457 -0.1641
    1W        W40294  28.997  23.098   3.093  0.2505 -0.1168 -0.1296
    1W        W40295  22.832  26.669   1.956 -0.3233  0.2440  0.1817
    1W        W40296   6.994  14.941   7.829  0.0900 -0.1084  0.2723
    1W        W40297  11.073   0.473   4.150  0.0386 -0.1273 -0.3788
    1W        W40298  21.372  19.173   8.346  0.0183  0.2086  0.2000
    1W        W40299  17.197  15.911   0.182  0.0368  0.0218 -0.4067
    1W        W40300   9.009   8.684   1.951  0.2453 -0.0231 -0.0844
    1W        W40301  19.039   2.238   0.158 -0.0171  0.1616  0.0478
    1W        W40302  27.179   6.474   7.458 -0.1911  0.0911  0.3219
    1W        W40303  13.405  12.300   0.366 -0.0428  0.1057 -0.3723
    1W        W40304   0.134  17.881   9.162  0.1832 -0.1501 -0.1694
    1W        W40305  11.309   1.592   2.459  0.1285  0.0708 -0.0361
    1W        W40306  20.331  15.576   8.004 -0.0331  0.1647 -0.0863
    1W        W40307   5.480  11.156   8.293 -0.3630  0.0026 -0.1907
    1W        W40308   9.072  25.162   0.358  0.4002  0.1924 -0.0302
    1W        W40309  25.024  18.538   0.609 -0.1781  0.1865 -0.3504
    1W        W40310  28.793  27.486   2.698  0.0346 -0.1949 -0.1313
    1W        W40311  16.836  16.658   0.422  0.0660  0.2633  0.1623
    1W        W40312  10.515  15.447   7.309 -0.0441  0.2497  0.0481
    1W        W40313   3.979  10.052   0.678 -0.1314  0.2304 -0.2592
    1W        W40314  26.685   8.646   0.143  0.4049  0.1727 -0.1555
    1W        W40315  27.021  19.531   7.675 -0.4222  0.2427 -0.2813
    1W        W40316   2.415   9.880   7.562  0.2168  0.0660 -0.0534
    1W        W40317  18.200  23.206   1.440 -0.1186  0.1201  0.1874
    1W        W40318   5.793   0.835   8.257 -0.1859  0.2012 -0.0927
    1W        W40319  22.298   6.982   8.044 -0.1091 -0.0574  0.1214
    1W        W40320  20.427  12.398   9.438 -0.1830  0.0662  0.0286
    1W        W40321  19.245   0.947   8.106 -0.5052 -0.1846 -0.0808
    1W        W40322  24.171  11.524   7.354  0.5305 -0.1868  0.0051
    1W        W40323   4.702   0.436   9.672  0.0560  0.2933 -0.2978
    1W        W40324  20.094   8.629   9.314 -0.0096  0.0666  0.0375
    1W        W40325  22.541  18.788   0.133  0.0724 -0.2226  0.0504
    1W        W40326   0.551   2.499   7.124  0.2711 -0.1227  0.1756
    1W        W40327  18.733  27.842   8.128 -0.0897  0.0304 -0.1133
    1W        W40328  27.929  12.769   8.974  0.4049  0.1553 -0.3160
    1W        W40329  26.835   8.364   8.275  0.2367  0.1007 -0.0040
    1W        W40330   8.886  24.338   1.401  0.2255  0.1529  0.0524
    1W        W40331   5.379  17.483   9.392 -0.0882 -0.2279  0.1174
    1W        W40332  20.837  19.284   2.920 -0.3166 -0.0900 -0.1813
    1W        W40333  14.148   4.294   2.098  0.2686  0.1244 -0.0904
    1W        W40334   1.923  15.487   6.339 -0.0151 -0.0117 -0.0634
    1W        W40335  22.255  23.413   1.393  0.2274 -0.3080 -0.2382
    1W        W40336   6.068  21.216   7.538  0.2279  0.0165  0.2181
    1W        W40337  16.631  24.402   2.204 -0.0054 -0.1090 -0.3272
    1W        W40338  24.668  20.526   8.692  0.2242  0.0034 -0.1086
    1W        W40339   9.023  17.280   2.441  0.2466  0.2375 -0.0172
    1W        W40340   4.715   3.254   3.155  0.0599 -0.2892  0.3525
    1W        W40341   5.967  27.090   2.801 -0.2508 -0.0280 -0.1431
    1W        W40342  28.628  10.056   9.333 -0.0323  0.1709 -0.1223
    1W        W40343  26.211   2.787   9.125 -0.0598 -0.0277  0.0146
    1W        W40344  18.842   3.157   2.046  0.1599 -0.0820  0.1293
    1W        W40345   6.349  17.798   7.548 -0.0692 -0.1991 -0.0657
    1W        W40346   1.121  10.783   1.351  0.0875 -0.1391  0.0614
    1W        W40347   7.305   7.947   7.330 -0.1598 -0.1677  0.1068
    1W        W40348  13.418   1.879   1.154 -0.3900 -0.0340 -0.3314
    1W        W40349  12.691  25.782   9.556 -0.3024 -0.1219 -0.0279
    1W        W40350   1.608   9.214   6.758  0.2716  0.0733  0.1305
    1W        W40351  27.040   3.373   1.346 -0.0442  0.1454  0.0134
    1W        W40352  16.336  25.792   7.741 -0.1528  0.0586 -0.0499
    1W        W40353   7.529  28.594   1.903  0.1692 -0.0770  0.0370
    1W        W40354  22.980  11.444   0.265  0.1885  0.1656  0.1202
    1W        W40355  14.902   3.180   1.238 -0.0120 -0.1490  0.4102
    1W        W40356  25.052  16.134   1.112 -0.0245  0.2673 -0.2471
    1W        W40357  27.375  27.201   6.179  0.1758  0.3605 -0.1559
    1W        W40358   3.592  12.546   1.770  0.0247 -0.4161 -0.1659
    1W        W40359   0.267  26.440   2.466 -0.1338  0.2244 -0.0098
    1W        W40360  19.472  22.466   7.645 -0.1038 -0.1316 -0.1629
    1W        W40361  11.216  12.343   1.686  0.2012  0.0226  0.2954
    1W        W40362  15.918  19.322   2.691  0.2989  0.0213 -0.0070
    1W        W40363  25.283  13.713   1.623  0.0484 -0.0535  0.2872
    1W        W40364  18.041  11.046   0.772 -0.0876  0.3220  0.0030
    1W        W40365  26.343   8.919   6.991  0.2896 -0.0311 -0.0038
    1W        W40366   2.196   3.561   1.786  0.2275 -0.1657 -0.1082
    1W        W40367   6.246   2.316   3.267 -0.2433  0.1709  0.0869
    1W        W40368  11.611   0.257   3.036 -0.2447  0.0923 -0.0666
    1W        W40369  10.706  28.700   7.944 -0.0606 -0.0212 -0.0421
    1W        W40370  29.118   7.498   1.775 -0.0190  0.0912 -0.0224
    1W        W40371  13.342  21.932   8.089 -0.1451 -0.1809 -0.1913
    1W        W40372  18.990  23.304   9.127  0.0532  0.4199  0.2401
    1W        W40373   7.275   8.011   8.934 -0.0568  0.1709 -0.3929
    1W        W40374  28.758  29.220   8.768  0.2888  0.0879 -0.1448
    1W        W40375  24.034  23.068   1.165 -0.0489 -0.2088 -0.0128
    1W        W40376  25.830  12.996   1.272  0.1300  0.0194  0.0837
    1W        W40377  18.566  10.800   0.998 -0.0492 -0.0367 -0.2278
    1W        W40378   4.463   8.753   9.134  0.2388  0.0506 -0.1749
    1W        W40379  25.514  17.433   6.605  0.1166 -0.0672  0.1401
    1W        W40380   3.579  26.718   7.965 -0.2204  0.3294 -0.1566
    1W        W40381  11.004   6.906   1.523 -0.1785  0.2758 -0.2054
    1W        W40382  10.991  29.259   8.467 -0.0937  0.0708  0.1207
    1W        W40383  28.495   3.196   2.566 -0.1270 -0.0124 -0.3937
    1W        W40384  16.793   6.402   0.225  0.2223  0.2652 -0.0236
    1W        W40385  23.012  24.227   9.484 -0.2381  0.4283 -0.2928
    1W        W40386   9.176   7.876   6.915 -0.1337  0.0650 -0.0782
    1W        W40387   4.997  26.452   8.127 -0.0012  0.1437 -0.3757
    1W        W40388  21.801   1.377   8.293 -0.1683 -0.1654  0.0889
    1W        W40389   4.019  13.259   7.196  0.0330  0.1195 -0.0734
    1W        W40390   5.977  25.095   7.587  0.3220  0.2977 -0.1654
    1W        W40391   6.493   6.077   2.554  0.0664 -0.2494 -0.0848
    1W        W40392   1.627   4.040   9.546  0.1300  0.2579 -0.5953
    1W        W40393   2.729   7.269   0.384  0.0653  0.1701 -0.2177
    1W        W40394  12.338   1.342   3.088 -0.0852 -0.1088  0.0152
    1W        W40395   2.070   2.826   9.477 -0.0417  0.1051 -0.0711
    1W        W40396  16.708  23.471   9.359  0.1036 -0.2965 -0.2529
    1W        W40397  26.059  17.931   9.618  0.2190 -0.0273  0.1718
    1W        W40398  17.159  11.584   7.684  0.1190 -0.0097 -0.2200
    1W        W40399  21.629   7.029   1.110 -0.3472  0.0285 -0.1559
    1W        W40400   9.629   2.290   2.397  0.0487  0.1530  0.0674
    1W        W40401  11.743   7.609   0.144  0.0035 -0.1124  0.1568
    1W        W40402   8.710   0.722   8.385 -0.2063  0.2606  0.2300
    1W        W40403  24.815  14.679   1.678 -0.0335 -0.3860 -0.3736
    1W        W40404  14.621  27.043   2.454  0.0330  0.2502  0.0156
    1W        W40405  27.699  10.694   7.813 -0.0710 -0.0749 -0.3061
    1W        W40406   8.767  15.485   6.383  0.0156  0.0594 -0.1378
    1W        W40407   1.602   7.118   6.113  0.0368 -0.0630  0.2421
    1W        W40408   7.385  24.742   0.401 -0.5426  0.0571  0.0226
    1W        W40409  12.328  22.944   6.895 -0.0672 -0.0493  0.0884
    1W        W40410  27.873   1.136   1.089  0.1816  0.4243 -0.0686
    1W        W40411  19.287   2.958   2.035 -0.3092 -0.1790 -0.3107
    1W        W40412   7.251  25.029   8.466  0.0192  0.0749  0.1325
    1W        W40413  10.082  18.864   2.277  0.0762  0.2437  0.2150
    1W        W40414   4.846   1.923   8.162 -0.2101  0.2934  0.1478
    1W        W40415  16.996  11.076   2.616  0.0730  0.1860  0.0729
    1W        W40416  19.973  17.361   7.514  0.0930  0.0861 -0.0012
    1W        W40417   7.197  23.011   2.556 -0.2031 -0.1453 -0.1627
    1W        W40418  14.904  18.038   0.928 -0.2085  0.1046  0.0953
    1W        W40419  27.139   5.324   2.450  0.0787  0.1208  0.1952
    1W        W40420  11.763  13.108   8.089 -0.0986  0.2008  0.2061
    1W        W40421  21.466  26.372   7.751 -0.1508  0.1887  0.4440
    1W        W40422  15.886  22.571   8.262  0.2426 -0.1909 -0.2598
    1W        W40423  15.349  21.226   2.220  0.0262  0.2527 -0.2730
    1W        W40424   4.414   5.294   0.740  0.3456 -0.2121 -0.2040
    1W        W40425   5.925   9.267   6.215  0.0215 -0.2096  0.2405
    1W        W40426  29.157  21.855   0.846  0.1373 -0.1967  0.4168
    1W        W40427   2.612   8.830   6.878  0.2845  0.0729  0.4070
    1W        W40428   8.368  11.816   8.775 -0.2864 -0.0738 -0.0217
    1W        W40429  12.955   0.355   8.483  0.2006  0.2216  0.3395
    1W        W40430   6.707  13.258   1.525  0.4582  0.1234 -0.5153
    1W        W40431  10.881  29.117   3.616 -0.0647  0.0191 -0.0067
    1W        W40432  19.565  20.070   1.094 -0.0220 -0.0608  0.2851
    1W        W40433  11.159   0.630   7.693  0.1127  0.0923  0.1291
    1W        W40434  26.784   0.201   9.103  0.1944 -0.0802  0.2095
    1W        W40435   3.348  29.048   9.524  0.0143 -0.1104  0.1532
    1W        W40436   9.498   1.724   8.435  0.1114  0.2260 -0.2159
    1W        W40437  24.715  24.567   1.728 -0.0356  0.2584 -0.1197
    1W        W40438   0.472  12.566   6.263 -0.3029 -0.4108 -0.0659
    1W        W40439   4.353  24.282   7.821 -0.2485  0.2883 -0.0105
    1W        W40440  20.768  22.372   1.678 -0.1059 -0.2492 -0.1489
    1W        W40441   5.950   5.185   1.462 -0.0458 -0.1277  0.3062
    1W        W40442  11.114  12.683   7.569 -0.1492  0.2887  0.0014
    1W        W40443  10.965  13.196   9.085  0.2666 -0.2254  0.0055
    1W        W40444   7.681   3.166   1.199  0.0994  0.0039  0.0580
    1W        W40445  22.700  29.115   1.610  0.1153 -0.1315 -0.0654
    1W        W40446   1.288  14.343   6.356  0.3770  0.2856 -0.1133
    1W        W40447  27.858  17.367   8.439 -0.0683 -0.3904  0.1257
    1W        W40448  28.404  25.887   1.573 -0.0263  0.0759 -0.1874
    1W        W40449   4.878  18.167   8.747 -0.0936 -0.1216 -0.2099
    1W        W40450  20.782   8.263   3.593 -0.0207 -0.2733  0.1088
    1W        W40451   8.665  15.048   8.247  0.0609  0.1139  0.1455
    1W        W40452  16.848   8.923   8.463 -0.1170  0.0746  0.1684
    1W        W40453   4.170  27.550   0.744 -0.0889  0.1839  0.1991
    1W        W40454  25.503  23.298   1.263  0.1672 -0.0977 -0.0675
    1W        W40455  22.873  12.533   0.945  0.1960  0.2370  0.0962
    1W        W40456  20.279   5.392   6.456  0.3038  0.3934 -0.0839
    1W        W40457   2.419  17.475   2.536 -0.1109 -0.1543  0.2173
    1W        W40458  27.406  19.262   0.593 -0.2419 -0.1361 -0.3188
    1W        W40459  17.917  13.755   1.759  0.1871 -0.1517  0.0144
    1W        W40460  22.080   5.983   7.770 -0.3644  0.2336  0.2425
    1W        W40461  13.594  23.467   7.047 -0.3419 -0.0447  0.2770
    1W        W40462  24.354  25.709   6.894 -0.0348 -0.0899 -0.0687
    1W        W40463  21.450  16.782   8.992  0.2777 -0.2110  0.3339
    1W        W40464   5.721  18.672   8.959 -0.2337  0.1120 -0.1186
    1W        W40465  16.205  27.668   1.744  0.0052  0.1341  0.1292
    1W        W40466  10.582  25.742   0.902  0.2730  0.4959  0.0937
    1W        W40467   6.420  23.403   1.172  0.0518  0.0451 -0.0573
    1W        W40468   8.008   0.598   3.461 -0.0568  0.1285  0.1353
    1W        W40469   1.600  13.562   6.575  0.0219 -0.2119  0.1209
    1W        W40470  15.795   4.177   8.085  0.1782 -0.1132 -0.0966
    1W        W40471  10.401   9.498   0.428  0.0971 -0.1167  0.0163
    1W        W40472  27.401  14.424   8.139 -0.2340  0.3375 -0.1492
    1W        W40473  28.890  22.876   9.403 -0.0683  0.0999 -0.4183
    1W        W40474  15.114   7.348   0.653 -0.2481 -0.1116  0.1024
    1W        W40475  24.648  18.628   1.544 -0.1383 -0.1427 -0.0741
    1W        W40476  14.691   1.443   0.092 -0.0307  0.0941 -0.2700
    1W        W40477  28.167  18.197   7.837  0.1494  0.1191 -0.1630
    1W        W40478  18.184  27.579   2.880 -0.0511  0.0879  0.1823
    1W        W40479  21.464  26.403   8.338 -0.2600 -0.1075  0.4624
    1W        W40480  27.277   3.805   1.732  0.0067  0.3236  0.2413
    1W        W40481   0.609   8.753   0.878 -0.1612  0.1721  0.2295
    1W        W40482  12.870   1.640   3.479 -0.1202  0.0399 -0.2673
    1W        W40483   4.514  25.060   2.222  0.1104  0.1494 -0.2293
    1W        W40484   2.865  24.331   0.976 -0.1432  0.0343  0.1315
    1W        W40485   8.463   2.550   1.290  0.1435 -0.1438 -0.2637
    1W        W40486  23.850   1.216   9.389 -0.4222  0.2174 -0.2519
    1W        W40487   1.667  18.780   1.040  0.0654 -0.0676  0.0132
    1W        W40488  21.270  29.111   9.369  0.0706  0.2646  0.0177
    1W        W40489  27.530   6.040   8.561  0.2530  0.2987  0.1638
    1W        W40490   6.073  15.590   1.222  0.1368 -0.0962  0.0135
    1W        W40491  28.674  15.647   9.131  0.2172 -0.4112  0.0771
    1W        W40492   3.508  22.387   6.460 -0.3727  0.1402 -0.2816
    1W        W40493  25.297   9.613   9.608 -0.0051 -0.2077 -0.1617
    1W        W40494  12.338   8.499   0.103 -0.0818 -0.1394 -0.0486
    1W        W40495   9.201  14.573   8.859  0.1228  0.0549  0.2291
    1W        W40496  10.445   5.304   2.257 -0.3070  0.0617 -0.0700
    1W        W40497  14.284  19.748   7.927 -0.0506  0.2711  0.0130
    1W        W40498  21.648   4.216   1.534  0.0865  0.2014 -0.1380
    1W        W40499   0.721  19.002   8.463  0.0209 -0.0915 -0.1803
    1W        W40500  17.657  20.398   1.683  0.0419 -0.1765  0.1569
    1W        W40501  19.466  15.217   1.445  0.2659 -0.2576  0.1157
    1W        W40502   4.564   4.400   1.713 -0.0512 -0.0883  0.2604
    1W        W40503  23.931   0.524   1.883 -0.1374 -0.1078  0.0334
    1W        W40504  22.005  27.888   0.354 -0.2537 -0.0814  0.0628
    1W        W40505  24.629  18.109   8.683  0.0592 -0.2273 -0.2198
    1W        W40506  24.663  28.914   8.450  0.1352  0.2288 -0.2713
    1W        W40507   4.760  27.887   8.871 -0.0834  0.1478  0.0453
    1W        W40508  10.820  19.679   7.230  0.0204 -0.0226 -0.0772
    1W        W40509   4.119   9.919   1.118  0.1081  0.0078 -0.2136
    1W        W40510   0.579  20.801   0.722  0.2214 -0.0838 -0.0406
    1W        W40511   7.137   4.010   0.001  0.0113  0.1115  0.1147
    1W        W40512  22.262   0.169   0.019 -0.2256 -0.0298  0.1388
    1W        W40513   5.618  24.761   7.645 -0.0654  0.2485  0.0003
    1W        W40514  12.510  13.221   1.059 -0.1546 -0.0502  0.3275
    1W        W40515   3.772  15.086   2.119  0.1408  0.0565  0.0507
    1W        W40516   6.800  15.562   0.494  0.0494  0.0812  0.0376
    1W        W40517  17.314  25.299   8.054 -0.0406  0.0037  0.2624
    1W        W40518  10.852  19.581   7.746 -0.0044 -0.1357  0.1551
    1W        W40519  14.475  28.632   3.355  0.2441  0.2204  0.0798
    1W        W40520  14.519   5.945   1.429 -0.2810 -0.1319  0.1587
    1W        W40521  13.403  14.304   8.297  0.0008  0.0173  0.0571
    1W        W40522   8.266   9.260   8.139  0.1785 -0.0117 -0.0901
    1W        W40523  11.756  17.989   0.893  0.0719  0.2038  0.1305
    1W        W40524  22.993   0.452   6.347  0.1121  0.0940  0.0513
    1W        W40525   9.554  14.825   9.205  0.4252 -0.0023  0.0437
    1W        W40526  28.953   5.729   1.335  0.2571  0.3049 -0.2999
    1W        W40527  11.686  19.093   7.273  0.0209  0.1981  0.0835
    1W        W40528  24.076  27.035   8.624  0.0227 -0.3292  0.1105
    1W        W40529  11.484   1.807   1.422  0.0111  0.1868 -0.1150
    1W        W40530  15.817   2.161   7.663 -0.2665 -0.1900 -0.3483
    1W        W40531  12.888   5.968   8.830 -0.0800 -0.0151  0.0268
    1W        W40532   9.377   3.658   3.196  0.0062  0.3956 -0.0831
    1W        W40533  28.943   9.656   8.673 -0.0975  0.3310 -0.3857
    1W        W40534   1.193  20.913   8.245  0.1185  0.2614  0.4480
    1W        W40535   5.424  12.784   0.988  0.0586 -0.1911  0.1660
    1W        W40536  25.218   8.433   0.996  0.0085  0.1382  0.1472
    1W        W40537  26.183   5.096   0.890 -0.0435 -0.3173 -0.0410
    1W        W40538   6.351   8.694   0.544  0.0675  0.0539 -0.0442
    1W        W40539   1.311  18.697   6.776  0.0987  0.0750  0.3017
    1W        W40540  15.162  15.257   2.119  0.0487  0.1582  0.0958
    1W        W40541  27.801  29.259   1.082  0.0483  0.0330 -0.2454
    1W        W40542  19.041   9.675   7.095  0.0796  0.2013 -0.0519
    1W        W40543   0.526  17.255   1.457  0.0420 -0.0959 -0.0437
    1W        W40544   0.498  16.642   6.094 -0.0927  0.0505  0.1726
    1W        W40545  21.137   0.761   7.268  0.0550 -0.0081 -0.1992
    1W        W40546   9.771   8.099   2.171  0.2219 -0.0132 -0.1163
    1W        W40547  27.680  27.721   6.217  0.2260  0.0160 -0.0047
    1W        W40548  11.688   3.530   1.773 -0.0435  0.0435  0.1712
    1W        W40549  10.575  10.290   1.509 -0.1011 -0.0969 -0.3230
    1W        W40550  26.252   4.445   7.923  0.0832  0.2278  0.0345
    1W        W40551   9.748   9.893   8.161  0.1599  0.2736  0.1916
    1W        W40552   8.741   7.505   2.205 -0.4402  0.0505  0.1939
    1W        W40553  25.207  15.303   9.309 -0.1730 -0.2195 -0.0043
    1W        W40554  12.177   5.822   0.341  0.1739 -0.2892  0.1074
    1W        W40555   6.717   6.746   0.282 -0.0553  0.0596  0.1303
    1W        W40556  11.192  13.048   2.074  0.2167  0.2715  0.0798
    1W        W40557   9.229  21.542   7.046  0.1293 -0.1468 -0.0359
    1W        W40558   2.232   7.132   1.140  0.4752  0.2007 -0.3001
    1W        W40559  16.252   3.958   8.036  0.0496 -0.0098  0.3262
    1W        W40560  15.481  25.229   2.688  0.0166 -0.0404 -0.0013
    1W        W40561  18.048  14.163   1.482 -0.0254  0.1404 -0.1188
    1W        W40562  13.427  16.863   7.986  0.0426  0.1854  0.0803
    1W        W40563   3.793   7.204   9.298  0.1359  0.1469 -0.3700
    1W        W40564  11.470   6.073   1.879 -0.1344 -0.2802 -0.0229
    1W        W40565  20.086   3.409   1.467  0.0552  0.1153  0.1783
    1W        W40566  21.913  21.931   0.021  0.2850  0.1572 -0.0509
    1W        W40567   9.290   9.075   2.637 -0.2144  0.2048 -0.3832
    1W        W40568   3.480  24.064   5.996 -0.3312  0.3485 -0.0914
    1W        W40569  23.019  26.859   1.532 -0.1769  0.1298 -0.2220
    1W        W40570   3.728   5.811   0.976  0.1143  0.0986 -0.2076
    1W        W40571  14.997  17.304   2.176  0.0585 -0.1375 -0.0121
    1W        W40572  17.820  15.303   2.090 -0.0408  0.0537 -0.0339
    1W        W40573  19.872   4.360   0.163  0.0369 -0.1116  0.4224
    1W        W40574  16.191  26.350   6.980  0.0368  0.0587  0.1288
    1W        W40575  24.065   9.899   2.867 -0.3913  0.0385 -0.2585
    1W        W40576  19.284   3.427   7.099 -0.1323  0.3206 -0.0818
    1W        W40577  10.778  26.991   1.587  0.0533 -0.2092 -0.0637
    1W        W40578  25.229  25.028   7.216  0.0127 -0.0166 -0.0071
    1W        W40579  15.411  17.632   8.086 -0.1545 -0.3283 -0.0325
    1W        W40580  11.771  11.783   2.432 -0.1782  0.2268 -0.1371
    1W        W40581  16.688  24.105   7.857  0.2020 -0.3440  0.1563
    1W        W40582  24.916  14.476   1.248  0.0622  0.0570  0.2975
    1W        W40583  15.711   5.008   4.089 -0.0604  0.4553 -0.2775
    1W        W40584  19.726   3.195   1.735  0.1398  0.1231  0.2799
    1W        W40585  25.352   4.883   9.429  0.0193 -0.0229 -0.1663
    1W        W40586  18.305   8.027   8.704  0.2168  0.3207  0.0241
    1W        W40587  28.751  21.029   7.572  0.1321  0.4448 -0.0224
    1W        W40588  23.359  16.320   1.205  0.2626  0.0455 -0.1796
    1W        W40589  26.455  22.388   6.839 -0.1200  0.2228  0.4437
    1W        W40590  18.718   2.432   9.421 -0.3726  0.0751 -0.0722
    1W        W40591   7.613  25.290   8.874  0.0272 -0.0185 -0.0093
    1W        W40592  25.006  20.825   8.536  0.2426 -0.2858  0.0208
    1W        W40593  22.295  24.380   7.674 -0.0082  0.0767  0.1421
    1W        W40594  13.308  28.968   9.435  0.1648  0.1571  0.0171
    1W        W40595  21.005   0.128   9.009 -0.0681  0.2093  0.2757
    1W        W40596   2.957   1.190   8.257  0.1577 -0.2962  0.0113
    1W        W40597  14.419  25.898   3.415  0.2621 -0.0096  0.1109
    1W        W40598   8.985  25.317   6.868  0.4874 -0.0953  0.2968
    1W        W40599  28.607   4.437   0.680  0.0330  0.2903 -0.0688
    1W        W40600  11.961  22.275   2.167 -0.3884  0.0399  0.1287
    1W        W40601   1.513  20.645   6.529 -0.3148 -0.0652 -0.2301
    1W        W40602  21.493  18.302   2.178  0.0967  0.1100  0.0374
    1W        W40603  13.705  10.589   1.492  0.0632  0.1031  0.0799
    1W        W40604  28.726  23.938   1.883  0.1985  0.0394 -0.2080
    1W        W40605   2.628  10.459   0.343  0.0322 -0.0453 -0.0396
    1W        W40606  25.472  12.699   0.049  0.3079  0.1330 -0.1210
    1W        W40607  13.622  26.777   1.564 -0.4592 -0.1860 -0.1704
    1W        W40608  26.310  28.541   6.634  0.1080  0.0518  0.0099
    1W        W40609  13.521   7.310   8.937 -0.2672 -0.2478 -0.3006
    1W        W40610  10.341   3.142   2.000 -0.1396 -0.3093  0.1025
    1W        W40611  26.596  15.096   6.181  0.2505  0.0306  0.1597
    1W        W40612  27.078  21.390   7.449  0.0660 -0.2314  0.3278
    1W        W40613  21.330  26.928   0.195  0.0462 -0.0974  0.2855
    1W        W40614  12.671  29.047   1.642  0.1396 -0.1671  0.0366
    1W        W40615  18.406  10.498   7.439  0.3736 -0.0638  0.0475
    1W        W40616   3.353  14.338   8.247 -0.2909  0.3966  0.2366
    1W        W40617  16.806   5.189   9.081 -0.3774  0.1131  0.2221
    1W        W40618   2.094  20.183   9.668 -0.0546  0.2665 -0.2028
    1W        W40619   9.723   4.846   8.957  0.2113  0.1366  0.2679
    1W        W40620   3.473  28.086   8.719  0.2866  0.2593 -0.1071
    1W        W40621   4.605  20.713   1.416 -0.0532  0.2631 -0.0329
    1W        W40622  25.985   1.517   9.318  0.2364 -0.2030  0.0789
    1W        W40623  26.756   1.372   1.105 -0.2878  0.0541 -0.0787
    1W        W40624  24.744  21.926   7.171 -0.1748 -0.0000  0.1413
    1W        W40625  10.432  26.003   1.599 -0.2176  0.0316  0.0803
    1W        W40626   4.741   0.670   2.782  0.3393 -0.2549 -0.1758
    1W        W40627   0.492  14.418   6.116 -0.0428 -0.0535  0.0846
    1W        W40628   1.913  28.734   6.940  0.1592  0.0091  0.0744
    1W        W40629  27.823  12.758   8.458 -0.0858 -0.1572  0.0926
    1W        W40630  26.310  28.300   7.633  0.0817 -0.0296 -0.1979
    1W        W40631  14.526  17.070   8.548 -0.4418  0.1341 -0.0394
    1W        W40632   2.184   8.073   8.902 -0.0067  0.2689 -0.3145
    1W        W40633  28.418   9.577   7.978  0.1720 -0.2484 -0.2277
    1W        W40634  17.482  18.481   7.373  0.0350  0.1292  0.0859
    1W        W40635  24.576  10.941   7.956  0.2404 -0.1096  0.1761
    1W        W40636  27.384  28.396   6.826  0.1323  0.0925 -0.0186
    1W        W40637   5.744   6.040   6.770 -0.2432  0.0237  0.1761
    1W        W40638   5.350  13.507   8.316  0.0362  0.1713 -0.1033
    1W        W40639   0.015  12.101   8.330  0.3055 -0.0676  0.0327
    1W        W40640   3.065  25.993   6.859 -0.2994  0.1628  0.0494
    1W        W40641   5.699  22.905   1.133  0.1014 -0.2333 -0.0999
    1W        W40642  23.697  24.546   7.408 -0.2410 -0.0152 -0.2679
    1W        W40643   1.072   1.648   1.409  0.1989 -0.0180  0.2613
    1W        W40644   0.844  20.891   6.326 -0.0720  0.2320 -0.0598
    1W        W40645  14.279  22.221   9.305  0.0717 -0.1025  0.2271
    1W        W40646  17.504  22.782   0.092  0.0545 -0.1767  0.0118
    1W        W40647   4.884   7.284   1.066 -0.1270 -0.0030 -0.1287
    1W        W40648  25.226   6.226   7.596  0.0609 -0.0215 -0.1797
    1W        W40649  25.370  15.423   5.982 -0.1051  0.0784 -0.3154
    1W        W40650  27.120  20.810   0.928 -0.1719 -0.4241  0.0512
    1W        W40651  20.471   3.324   8.819 -0.2512 -0.4838  0.0135
    1W        W40652   9.285  28.196   8.757 -0.4361  0.3867  0.0585
    1W        W40653  27.813  22.260   8.715  0.1781  0.1528  0.1301
    1W        W40654   5.879  12.888   8.683  0.0920  0.0999  0.1534
    1W        W40655  21.302  15.712   8.539  0.1949 -0.0312 -0.1173
    1W        W40656  15.770  25.146   7.481 -0.2283  0.1166  0.1115
    1W        W40657   7.489  19.579   1.605 -0.0841  0.0199 -0.1902
    1W        W40658   8.751  19.691   7.279  0.3426  0.1678  0.0159
    1W        W40659  27.363   4.194   6.575  0.1389  0.0027  0.0947
    1W        W40660   3.673   8.184   6.192  0.0094 -0.0079  0.1458
    1W        W40661   2.538   7.850   8.581 -0.2492 -0.1554 -0.1920
    1W        W40662  24.232  17.579   2.288 -0.1915 -0.2878 -0.0537
    1W        W40663   1.948  15.058   6.637 -0.1926  0.3413  0.0390
    1W        W40664   4.871  29.137   1.765 -0.0560 -0.0843  0.1452
    1W        W40665   1.349  12.906   2.009  0.2710  0.0721 -0.0622
    1W        W40666  24.867  22.452   2.679 -0.1559  0.2068  0.2316
    1W        W40667   0.085  10.693   7.045 -0.0827  0.0895 -0.0266
    1W        W40668  18.152  21.299   2.454 -0.0930  0.0378  0.6095
    1W        W40669  19.912  19.299   2.880  0.0860  0.0049 -0.0889
    1W        W40670  19.603  27.058   1.192  0.3513 -0.1010  0.2381
    1W        W40671  10.604  12.965   1.462 -0.0580 -0.2625 -0.0718
    1W        W40672  24.035   0.563   1.350 -0.0325 -0.0227  0.0944
    1W        W40673   7.590   4.917   7.600 -0.0239 -0.1851  0.2294
    1W        W40674  29.257  20.018   1.149  0.1375 -0.0249  0.2778
    1W        W40675   1.384  28.663   1.136 -0.2965  0.1905 -0.0830
    1W        W40676  16.808  14.209   9.548 -0.1172 -0.2080  0.4063
    1W        W40677  19.429  10.784   1.684  0.1703 -0.2098  0.0688
    1W        W40678   8.855  20.603   7.034 -0.0127  0.0687  0.0649
    1W        W40679  13.848   4.961   2.368  0.1016  0.0508 -0.0186
    1W        W40680  13.817   5.697   1.959  0.2425 -0.1695  0.1940
    1W        W40681  17.367   9.800   2.955  0.0349  0.1877 -0.0072
    1W        W40682   4.731  13.748   8.943 -0.0559  0.3462  0.1678
    1W        W40683   3.185  24.054   0.023 -0.1641  0.0402  0.1319
    1W        W40684  10.535   7.486   8.106  0.2811  0.0325 -0.0040
    1W        W40685  20.143  18.138   7.466 -0.1591  0.0145 -0.0567
    1W        W40686  11.693  16.488   2.425 -0.1589  0.3211  0.0905
    1W        W40687   3.258  12.949   9.481  0.3093 -0.2045 -0.1378
    1W        W40688  14.639   2.381   9.023  0.0109 -0.1187  0.1097
    1W        W40689  16.351  24.281   8.351 -0.2802 -0.1233 -0.2234
    1W        W40690  17.785  21.452   3.439 -0.0866  0.0803  0.1532
    1W        W40691  15.525  13.577   8.821 -0.1042 -0.1252 -0.1797
    1W        W40692  28.506   8.911   0.954  0.2760  0.1808 -0.2885
    1W        W40693   3.821   8.471   1.961  0.0300  0.2034  0.0483
    1W        W40694  25.124   7.420   1.009  0.0559  0.3499 -0.0863
    1W        W40695  27.037   4.620   8.081 -0.1044 -0.0969  0.0995
    1W        W40696   6.369  14.448   1.508 -0.1084 -0.1084 -0.0582
    1W        W40697  18.216  19.170   0.421  0.2949 -0.2520  0.1431
    1W        W40698   4.268   0.320   9.225  0.1301  0.0457 -0.0255
    1W        W40699  24.647   6.733   6.945  0.1741  0.0104  0.1744
    1W        W40700  23.869  12.562   2.250  0.0284 -0.2927 -0.2727
    1W        W40701  17.536  18.681   0.262  0.1083  0.0069 -0.0230
    1W        W40702   6.467   4.426   9.634  0.3276  0.0091 -0.0697
    1W        W40703  27.361  22.856   2.116  0.0536  0.0245 -0.1439
    1W        W40704  28.661  28.801   2.027 -0.0306 -0.0723 -0.0751
    1W        W40705   9.887  18.392   7.216 -0.1320  0.3004 -0.0688
    1W        W40706  11.741  26.015   0.183  0.2774  0.2944 -0.1802
    1W        W40707  22.096  19.560   3.390 -0.1631  0.0098  0.0734
    1W        W40708   4.505  25.030   6.952  0.2943  0.0332 -0.2907
    1W        W40709   5.695  15.728   9.452  0.1091  0.1074  0.0229
    1W        W40710  21.761  26.005   7.990  0.0381 -0.3742 -0.1234
    1W        W40711  24.535   1.740   7.092 -0.1535 -0.1965  0.0090
    1W        W40712   5.835   9.382   6.724 -0.4725  0.1813 -0.3314
    1W        W40713  26.022  24.888   8.139 -0.1335  0.2355  0.0003
    1W        W40714   6.379   5.139   8.821 -0.0154 -0.2143  0.0955
    1W        W40715   9.203   0.773   2.832 -0.0460  0.0389 -0.2957
    1W        W40716  24.731  10.173   7.068  0.0307  0.3200  0.0615
    1W        W40717  11.009  25.603   8.017  0.2691 -0.1862  0.3382
    1W        W40718  28.806  25.022   9.517 -0.1505 -0.0291  0.3326
    1W        W40719  12.662   6.783   7.777  0.0954  0.0488 -0.2490
    1W        W40720  16.724   0.086   7.396  0.0758 -0.2335 -0.0415
    1W        W40721   2.405  13.613   2.627 -0.2721  0.3401  0.3623
    1W        W40722  20.729   9.138   2.323 -0.1105  0.0312  0.2358
    1W        W40723  22.124   3.862   7.964  0.0851  0.0007 -0.0155
    1W        W40724  15.450  20.794   7.701 -0.2031 -0.0741  0.1752
    1W        W40725   6.875  29.021   0.869  0.2407 -0.1034  0.4503
    1W        W40726  28.264  16.576   1.194 -0.2980  0.1394 -0.2275
    1W        W40727  19.014  17.286   9.443 -0.2309 -0.2461 -0.2279
    1W        W40728  26.355   3.630   7.427 -0.0144 -0.2264 -0.1797
    1W        W40729  11.270  26.864   7.680 -0.1210 -0.1127 -0.3432
    1W        W40730  11.180   0.361   8.510 -0.2930  0.1330 -0.0381
    1W        W40731  25.072   9.054   1.523  0.0360  0.1535  0.2426
    1W        W40732   0.875  11.049   8.525 -0.0879  0.2604  0.0725
    1W        W40733  16.185  14.176   6.937 -0.4064  0.1373  0.0348
    1W        W40734  13.676  18.393   1.697 -0.0561 -0.0903  0.1788
    1W        W40735  23.988   3.825   6.139 -0.1287  0.0803  0.0038
    1W        W40736   9.437  26.620   2.331 -0.3973  0.0107 -0.1892
    1W        W40737   3.453  12.051   7.486 -0.0004 -0.0767 -0.2018
    1W        W40738   5.769  22.745   0.660 -0.0263  0.3412 -0.2553
    1W        W40739  11.284  17.792   0.008 -0.3281  0.0733  0.2381
    1W        W40740  24.198  14.401   6.111  0.1111 -0.1751 -0.0667
    1W        W40741  13.782  11.640   0.031 -0.0057  0.0805  0.1145
    1W        W40742  20.047  22.214   9.618 -0.0662  0.3231  0.2485
    1W        W40743  21.998   9.451   6.936 -0.0566  0.0556  0.0249
    1W        W40744  21.337  11.228   1.266 -0.1113  0.2146  0.0753
    1W        W40745  10.850  16.098   2.446 -0.1068  0.2054  0.2049
    1W        W40746   2.369   5.994   8.900 -0.2798 -0.1299  0.0048
    1W        W40747  19.238  10.596   7.608 -0.0608  0.2151  0.0375
    1W        W40748   7.963   8.029   8.596  0.0125 -0.2170  0.1445
    1W        W40749  15.777  25.887   1.373 -0.2829 -0.0639  0.1823
    1W        W40750  10.579  21.091   0.079 -0.1650 -0.1410  0.0015
    1W        W40751  16.864  27.490   3.478 -0.1121  0.3266 -0.0681
    1W        W40752   5.145   7.092   6.352 -0.0771  0.2455 -0.0686
    1W        W40753  16.641   4.415   1.942  0.0741 -0.2269 -0.1697
    1W        W40754  23.312   2.668   8.458 -0.0459 -0.1902  0.4018
    1W        W40755  17.040  24.933   2.872  0.1652 -0.1491 -0.0909
    1W        W40756  14.860  12.150   1.228 -0.0189  0.2680  0.1417
    1W        W40757  24.839   3.521   9.236  0.0457 -0.0140  0.1680
    1W        W40758  17.907   3.314   7.371  0.1475  0.0697 -0.2302
    1W        W40759  10.955  13.449   7.735  0.0455  0.0278  0.2239
    1W        W40760  24.486  20.416   6.983 -0.0572 -0.2231 -0.2679
    1W        W40761  19.187  21.789   8.185  0.0218 -0.0527 -0.1355
    1W        W40762   3.255  23.279   1.273 -0.0668 -0.1247 -0.0856
    1W        W40763   3.467  24.585   9.604  0.2526  0.1736 -0.1455
    1W        W40764  15.001   0.560   3.475  0.4260  0.0917 -0.1189
    1W        W40765  16.850   9.357   2.082 -0.0910  0.0370  0.2730
    1W        W40766  11.394  24.547   8.578  0.2648 -0.1145 -0.0546
    1W        W40767  18.106  20.679   0.059 -0.1240  0.0592 -0.3359
    1W        W40768  25.544  26.430   6.917 -0.1308  0.0554  0.0819
    1W        W40769  17.722   2.543   0.939 -0.0174  0.0516 -0.1472
    1W        W40770  27.623  21.825   2.031 -0.0981  0.0580  0.1369
    1W        W40771  28.351  18.568   6.816  0.1036  0.3641 -0.4304
    1W        W40772  11.546  28.535   3.192  0.0735  0.2806  0.2097
    1W        W40773   8.964  28.735   0.227 -0.5035 -0.0690 -0.1827
    1W        W40774  28.493  18.365   8.346  0.0331 -0.0291  0.1188
    1W        W40775  16.543  26.181   9.544  0.0913 -0.2323 -0.0991
    1W        W40776  19.238   5.428   7.025 -0.3182 -0.0683 -0.0936
    1W        W40777  19.056  16.061   1.574 -0.1036 -0.3865 -0.0120
    1W        W40778  18.611   9.562   1.402 -0.0131 -0.1115  0.0014
    1W        W40779  22.556  12.344   1.544 -0.3748  0.0855  0.2033
    1W        W40780   4.972  11.563   1.062 -0.0081 -0.1018 -0.0686
    1W        W40781   9.618  15.168   1.525 -0.2009  0.2683  0.0704
    1W        W40782  25.767  26.363   1.015 -0.4350 -0.1267  0.0266
    1W        W40783  12.513  23.177   8.296 -0.2934 -0.1535 -0.1315
    1W        W40784  17.049  26.379   2.831  0.0609  0.1617  0.0325
    1W        W40785  22.562  11.978   6.126  0.2721  0.2185 -0.1359
    1W        W40786  23.678   9.595   8.300  0.0608 -0.1363  0.3493
    1W        W40787  19.508  16.986   9.401  0.0682  0.1786 -0.2495
    1W        W40788  21.566   8.063   1.431 -0.0341  0.2160 -0.2352
    1W        W40789  17.574  14.176   0.233 -0.1181 -0.1403 -0.1271
    1W        W40790  24.526   3.267   9.580  0.0611 -0.1581  0.1226
    1W        W40791   1.056  28.324   0.914  0.2875  0.0829  0.0214
    1W        W40792  20.881  22.678   3.328  0.0742  0.3340  0.1809
    1W        W40793   8.820  10.423   8.925 -0.1495 -0.1933 -0.0287
    1W        W40794  28.675  20.206   0.344 -0.3472  0.2266  0.0287
    1W        W40795  19.486  13.710   1.435  0.1055 -0.2435 -0.1517
    1W        W40796  14.801   6.421   2.777 -0.1272 -0.2883  0.2103
    1W        W40797   2.961  12.692   6.881  0.1472  0.1669  0.0523
    1W        W40798  28.849  28.339   2.211  0.1758 -0.1071  0.1614
    1W        W40799   6.647  19.067   6.625 -0.2866  0.4685  0.0766
    1W        W40800  24.003  20.319   9.104 -0.3987 -0.2331  0.3395
    1W        W40801  14.827   1.802   0.523 -0.6522  0.3525 -0.0087
    1W        W40802  24.276   0.508   7.954 -0.3579 -0.2379 -0.1937
    1W        W40803  13.485  12.377   9.124  0.1543 -0.1622  0.3397
    1W        W40804  18.944  19.894   9.459  0.1547 -0.0383 -0.1102
    1W        W40805  20.665   7.131   0.816 -0.1216 -0.1105  0.4429
    1W        W40806  27.922  11.014   2.457  0.2338 -0.0423  0.3817
    1W        W40807  29.258  21.726   9.462  0.0569  0.1133  0.3654
    1W        W40808   4.433  24.643   1.815  0.1295 -0.0209 -0.1656
    1W        W40809   0.142  17.430   7.726 -0.1304 -0.0240 -0.2598
    1W        W40810   8.868  15.082   0.372  0.4389  0.1049  0.1531
    1W        W40811  23.945   4.392   8.521 -0.0067  0.2542 -0.0718
    1W        W40812   1.323  26.753   8.493 -0.1581 -0.2596 -0.4822
    1W        W40813   3.109  17.576   1.363 -0.0362 -0.1150  0.0911
    1W        W40814  22.137  26.487   0.353  0.1560 -0.0433 -0.2196
    1W        W40815  21.391  12.809   2.275 -0.1966  0.0562 -0.0172
    1W        W40816  17.900  27.915   9.201 -0.1636 -0.1253  0.1099
    1W        W40817  10.526   8.133   8.760 -0.2095  0.0382 -0.2235
    1W        W40818   0.464   0.158   0.213 -0.2581  0.0403 -0.1257
    1W        W40819  28.061  14.076   0.208 -0.0278  0.1618  0.0568
    1W        W40820  26.158  10.775   9.632  0.1824 -0.0467  0.1433
    1W        W40821  16.511  23.083   7.983  0.1617 -0.1596 -0.0791
    1W        W40822  22.776  10.010   1.890 -0.0353 -0.1515 -0.1177
    1W        W40823  15.308  11.190   8.112  0.1867  0.1161 -0.2175
    1W        W40824  19.110  27.224   8.913  0.0873  0.1058  0.1271
    1W        W40825  12.343   1.645   3.483  0.2347  0.0147  0.1648
    1W        W40826   3.820  19.490   5.531 -0.1899  0.4361  0.1107
    1W        W40827   4.925   9.592   2.468 -0.0026 -0.2490 -0.0374
    1W        W40828  24.855  13.516   1.806  0.3440 -0.1460 -0.0679
    1W        W40829  13.899   4.990   7.680  0.2251 -0.0074 -0.1770
    1W        W40830   6.619   9.428   7.636 -0.3335  0.2169 -0.0594
    1W        W40831  27.486   1.404   0.224 -0.0656 -0.1955  0.2505
    1W        W40832   2.315  11.957   9.612  0.1988 -0.0808  0.1266
    1W        W40833  25.475  29.352   1.281  0.2375  0.0463 -0.2998
    1W        W40834  26.672   7.484   8.565  0.1808  0.2268 -0.3051
    1W        W40835  23.145  20.033   2.113  0.1399  0.1532 -0.1305
    1W        W40836   4.117  27.527   7.367  0.1939  0.2221  0.2198
    1W        W40837   1.611   8.819   8.440 -0.3624  0.1293 -0.0663
    1W        W40838  25.142   4.471   9.534 -0.1847 -0.0665 -0.1289
    1W        W40839  19.555   3.448   3.474 -0.2518  0.2518  0.0250
    1W        W40840   6.598  18.186   2.584 -0.0351  0.0893  0.1268
    1W        W40841  19.375  21.250   8.202 -0.5170 -0.0555 -0.1624
    1W        W40842   6.719  13.256   0.521 -0.0251  0.0199  0.0410
    1W        W40843   3.746  15.569   1.311 -0.3931  0.0005  0.1464
    1W        W40844   8.594  20.828   1.119 -0.1855 -0.1353 -0.2010
    1W        W40845   7.998  29.324   0.933  0.0817 -0.1398 -0.2620
    1W        W40846  23.024  11.099   2.139 -0.0222 -0.0175 -0.1161
    1W        W40847  25.801   3.559   8.683  0.0823 -0.0910  0.0885
    1W        W40848   2.854   9.377   0.491 -0.1352 -0.3374 -0.0834
    1W        W40849  28.834   5.999   8.879 -0.1697 -0.0540 -0.0460
    1W        W40850   0.336  20.323   2.433  0.0245  0.1311 -0.2606
    1W        W40851  13.232   7.781   8.298 -0.2227 -0.0210  0.1865
    1W        W40852  14.661  17.690   2.237 -0.1857  0.0294  0.0011
    1W        W40853  14.727  19.647   8.043  0.3595 -0.1635 -0.0923
    1W        W40854  14.324   6.377   3.125  0.1495 -0.0064 -0.1997
    1W        W40855   5.661  19.975   2.014  0.1121  0.2830  0.0153
    1W        W40856  29.305  27.985   2.132  0.0340 -0.1823  0.2548
    1W        W40857   7.093   3.703   1.576  0.2679 -0.0431 -0.1761
    1W        W40858  23.628   3.176   1.880  0.0283  0.0449 -0.3899
    1W        W40859  20.467   7.228   8.783  0.0238 -0.1241 -0.0179
    1W        W40860  28.080  23.534   1.146  0.0696  0.1077  0.0132
    1W        W40861  27.322  10.170   9.599 -0.0330  0.1507  0.0638
    1W        W40862   5.506  27.700   2.341  0.2123  0.1186 -0.1883
    1W        W40863  21.364   1.824   0.488  0.2118 -0.3666 -0.1222
    1W        W40864  27.782   1.228   9.491 -0.1610  0.0217 -0.2558
    1W        W40865  14.475   9.662   8.543 -0.5121 -0.1208  0.4115
    1W        W40866   4.487  10.080   6.987 -0.0110  0.0616 -0.2149
    1W        W40867  23.979  10.934   9.318  0.0610 -0.0616 -0.1308
    1W        W40868   6.275  15.233   0.929 -0.0955 -0.1125 -0.4080
    1W        W40869   7.310  28.253   2.793 -0.0302  0.0157 -0.1851
    1W        W40870  27.314   7.512   8.276  0.0642  0.1109  0.5204
    1W        W40871   4.243  23.537   2.381  0.0120  0.1963 -0.2097
    1W        W40872   3.000  15.129   1.133  0.0881 -0.0344 -0.2473
    1W        W40873  24.229   6.053   1.242  0.0526  0.2599 -0.1468
    1W        W40874  10.675  27.959   3.873  0.0406  0.2630 -0.1226
    1W        W40875   7.840   4.033   0.565 -0.1787  0.2866  0.2573
    1W        W40876   2.762  21.778   8.520  0.2389  0.1116 -0.2844
    1W        W40877  12.077   5.937   9.010  0.2433 -0.1643 -0.1076
    1W        W40878  12.554   9.116   0.620  0.0075 -0.5057  0.1604
    1W        W40879  10.321   1.351   7.495  0.0554  0.1439  0.0442
    1W        W40880   3.278   7.592   2.615 -0.0785  0.2008  0.1740
    1W        W40881   0.501   7.933   1.892 -0.2467 -0.0331 -0.0806
    1W        W40882  15.196  23.464   0.673  0.2946  0.3353  0.1667
    1W        W40883  26.949  12.191   9.664  0.0571  0.0666 -0.1807
    1W        W40884  18.226  27.914   1.889  0.0828 -0.1237  0.0281
    1W        W40885  11.117  23.282   7.295  0.0470 -0.0334  0.0370
    1W        W40886   9.746   9.094   2.908 -0.1397 -0.3360 -0.2313
    1W        W40887  26.230  12.465   6.420 -0.0539 -0.1223 -0.0718
    1W        W40888  13.164   3.639   0.583 -0.2044 -0.1029  0.0777
    1W        W40889   4.680  17.457   1.748 -0.1851  0.1259  0.1823
    1W        W40890   2.696  20.925   9.556 -0.1928 -0.3952 -0.0823
    1W        W40891  17.116   1.592   2.010 -0.1026 -0.3322 -0.1146
    1W        W40892   7.771  18.126   7.580 -0.0008 -0.0544  0.1165
    1W        W40893  14.476   2.402   3.526  0.0543 -0.1018  0.0793
    1W        W40894  21.005  21.390   9.116  0.1681 -0.0127 -0.1109
    1W        W40895  29.084  18.672   0.816 -0.1338  0.1267 -0.0926
    1W        W40896  21.328  24.086   7.914  0.0637 -0.1435 -0.1814
    1W        W40897  19.777   1.218   1.737  0.0086 -0.0832 -0.2754
    1W        W40898   9.041   6.586   7.203  0.0589  0.2580  0.4457
    1W        W40899   9.462   6.918   3.261  0.1780 -0.1404 -0.1130
    1W        W40900  24.077  17.270   6.075  0.1823  0.4377 -0.0723
    1W        W40901   7.433  15.941   7.631 -0.1566  0.2951 -0.0140
    1W        W40902  10.759   2.545   7.490 -0.1772  0.0510 -0.0973
    1W        W40903  20.360   4.446   7.251  0.0689  0.1359 -0.0412
    1W        W40904  12.213   0.901   2.823 -0.1367  0.1076  0.0009
    1W        W40905   3.079  28.981   7.734  0.1180  0.2213  0.0662
    1W        W40906   9.727  18.173   8.626 -0.1673  0.1418  0.1111
    1W        W40907  14.787   6.049   9.593 -0.0572  0.1628  0.0433
    1W        W40908  16.181   1.679   3.108 -0.3182 -0.0015 -0.0672
    1W        W40909  16.538  14.319   0.264 -0.4221  0.2406 -0.2674
    1W        W40910   4.329   8.268   8.438  0.0452  0.4250 -0.0893
    1W        W40911  19.579  13.909   8.222  0.1332 -0.0302  0.1609
    1W        W40912  12.228  12.805   1.451 -0.0404  0.1911 -0.5984
    1W        W40913  18.111   4.719   2.517  0.2629 -0.1507  0.1253
    1W        W40914  28.341   6.019   8.687  0.0727  0.2817 -0.1842
    1W        W40915  26.237  13.926   0.328 -0.1230 -0.3017 -0.0181
    1W        W40916   2.443  16.030   7.874 -0.1446  0.0371  0.0941
    1W        W40917   0.640  25.339   8.104  0.2937 -0.0777 -0.2296
    1W        W40918  28.022   1.542   1.482  0.6994 -0.2042  0.0779
    1W        W40919  18.247  27.740   2.417  0.0470  0.0869 -0.0407
    1W        W40920  19.105  18.329   7.392 -0.2784  0.2455 -0.0095
    1W        W40921  22.894  20.730   8.829 -0.0909 -0.2757 -0.1379
    1W        W40922  28.622   0.168   3.389 -0.0704  0.1415 -0.3284
    1W        W40923   3.601  25.633   8.709  0.2189 -0.1355 -0.1577
    1W        W40924   5.976   8.382   6.264  0.0926  0.2201  0.2355
    1W        W40925   7.401  27.020   9.597  0.0449  0.0725 -0.4094
    1W        W40926  22.616   5.570   0.585 -0.1145  0.0900 -0.1062
    1W        W40927  16.941   8.823   8.915 -0.0316  0.1853 -0.0697
    1W        W40928  14.543   9.602   3.193  0.1686  0.1768 -0.1716
    1W        W40929  29.042  10.008   1.571  0.0159 -0.1249 -0.1023
    1W        W40930  23.778   2.272   0.300  0.0060 -0.0368 -0.3468
    1W        W40931  11.010  13.351   9.539 -0.2005 -0.0492  0.0039
    1W        W40932  21.824   5.060   0.833 -0.1712  0.1138 -0.0497
    1W        W40933  25.210   2.692   0.739 -0.1725  0.2751 -0.0313
    1W        W40934  26.589  28.648   9.011 -0.2267 -0.1731 -0.2500
    1W        W40935  27.885  21.046   0.417 -0.2034  0.0059 -0.2318
    1W        W40936  13.736   9.804   0.482 -0.0600  0.1384 -0.2752
    1W        W40937   2.345   6.065   1.422  0.0795  0.1711 -0.0124
    1W        W40938   9.212  18.881   7.108 -0.1137  0.2063  0.0938
    1W        W40939  21.812   2.586   6.078  0.0100  0.1147  0.2895
    1W        W40940   5.790   1.368   0.824 -0.2321 -0.2703 -0.1222
    1W        W40941  25.776   6.489   6.853  0.0725 -0.1992 -0.1149
    1W        W40942   9.514  14.950   0.015 -0.2481 -0.1517  0.1798
    1W        W40943  22.280  13.053   1.796 -0.3650 -0.1583 -0.1634
    1W        W40944   9.214  21.030   9.684 -0.0336  0.0691 -0.3574
    1W        W40945  16.127  21.191   0.937 -0.0653  0.0415 -0.2807
    1W        W40946   0.683   7.038   8.973  0.0413 -0.1061  0.0894
    1W        W40947  18.560   6.505   1.232 -0.2768  0.2066 -0.1694
    1W        W40948   1.216   7.949   1.229  0.0773 -0.1018  0.0354
    1W        W40949   8.716  21.882   7.803 -0.1017 -0.1278 -0.0852
    1W        W40950  15.157   8.180   1.002  0.0014 -0.0851  0.0550
    1W        W40951   0.863   3.042   0.413 -0.3379  0.2994  0.1624
    1W        W40952  14.687   7.830   1.684 -0.1038  0.0486 -0.0215
    1W        W40953   8.897   6.602   9.663  0.0326 -0.1429 -0.0244
    1W        W40954  25.530  23.447   3.211  0.1670  0.2623 -0.1315
    1W        W40955   5.332   1.179   1.232 -0.2672  0.1798 -0.5973
    1W        W40956   4.543  10.143   0.885 -0.1833  0.2159 -0.2118
    1W        W40957   4.750  24.246   2.062  0.3449 -0.2710 -0.0062
    1W        W40958  27.869  25.778   1.491 -0.2116  0.3392 -0.4922
    1W        W40959  13.013  15.162   9.602 -0.0131  0.1180 -0.2545
    1W        W40960  17.334  20.429   2.050  0.2560 -0.1259  0.0074
    1W        W40961  17.377  15.327   7.246  0.1503 -0.1772 -0.2159
    1W        W40962   2.330  12.417   2.084 -0.0578 -0.3656 -0.0568
    1W        W40963  23.402  20.981   9.106  0.0891  0.0517 -0.2373
    1W        W40964  24.064  26.255   8.112  0.0522  0.1213  0.0284
    1W        W40965   8.678  24.177   6.696 -0.0166 -0.1995  0.2558
    1W        W40966   0.848  11.188   1.792  0.0123 -0.1900  0.0835
    1W        W40967   0.739   5.631   0.731  0.1241  0.5070  0.1813
    1W        W40968   0.367  24.978   2.107  0.1326  0.4801 -0.2407
    1W        W40969   9.658  22.417   2.101 -0.1120 -0.0875 -0.0733
    1W        W40970  19.260  16.541   7.380 -0.2388  0.1093 -0.0314
    1W        W40971  24.915  20.903   2.537 -0.2993 -0.3006 -0.0128
    1W        W40972   6.955  13.036   2.598 -0.2010 -0.0069  0.0223
    1W        W40973   4.539   4.690   8.283 -0.0397  0.2585  0.1900
    1W        W40974  16.301  23.702   8.827 -0.0872 -0.0959  0.2882
    1W        W40975  16.054  26.751   1.658  0.0269  0.3577  0.1000
    1W        W40976   2.646  16.703   0.377  0.0933  0.1140  0.1923
    1W        W40977  11.676  27.127   0.376  0.3260 -0.0161 -0.0671
    1W        W40978   0.054  16.315   7.042  0.0550  0.0448  0.0030
    1W        W40979   4.899   6.838   0.089 -0.1856 -0.1314  0.1151
    1W        W40980  13.816  23.600   0.431  0.3672 -0.0335 -0.3292
    1W        W40981   5.264  21.854   7.211  0.0999  0.1398  0.0328
    1W        W40982   2.882   6.673   7.861  0.0791  0.1605  0.1121
    1W        W40983   6.922  16.651   8.199  0.1910  0.0759 -0.0946
    1W        W40984  21.510   0.040   9.044  0.1369  0.0806  0.1361
    1W        W40985   2.750   1.442   0.532 -0.0007  0.0275  0.0175
    1W        W40986  23.635  18.282   1.240  0.1393  0.2880  0.0352
    1W        W40987  27.236   4.017   2.171 -0.4733  0.1539 -0.1059
    1W        W40988  11.565  13.060   1.285  0.2110  0.0394 -0.3118
    1W        W40989  10.360   1.818   7.231  0.2174  0.3186  0.5423
    1W        W40990  27.346  27.782   9.522  0.1253  0.0503 -0.3140
    1W        W40991  21.804  28.789   1.399  0.3194 -0.0921  0.1710
    1W        W40992   6.738   6.527   2.566 -0.1277 -0.0388 -0.0377
    1W        W40993  19.098  14.050   8.328  0.3602  0.1882 -0.5926
    1W        W40994   0.248  26.785   7.536  0.1195  0.0104  0.0174
    1W        W40995   7.287  14.177   8.091 -0.1431 -0.0351 -0.2999
    1W        W40996  18.118  24.771   2.400 -0.1597 -0.0396 -0.1773
    1W        W40997  27.894  16.362   8.928  0.3247 -0.0078  0.0757
    1W        W40998  14.741  25.940   1.743 -0.0761 -0.1884  0.0772
    1W        W40999   9.056  24.553   6.723 -0.3286  0.2553  0.1433
    1W        W41000  27.287  12.697   1.480 -0.1740  0.0344 -0.1240
    1W        W41001   6.610   2.926   7.995 -0.0209 -0.1985 -0.2488
    1W        W41002   9.660   9.918   0.794 -0.2029 -0.2891  0.1941
    1W        W41003  13.896  28.059   8.999  0.2659 -0.0218  0.1750
    1W        W41004   4.320  11.948   1.679 -0.1543  0.0298 -0.2459
    1W        W41005  15.637   8.140   8.239 -0.1754  0.0113 -0.0573
    1W        W41006  11.346  23.990   8.775 -0.1061 -0.1415  0.2389
    1W        W41007   1.055   2.930   9.654  0.1429 -0.0224  0.0226
    1W        W41008  13.767  13.906   8.365  0.0770  0.2636  0.0240
    1W        W41009  11.743   3.105   0.610 -0.0027  0.2124 -0.0572
    1W        W41010  22.249  11.579   8.644 -0.1666  0.1037  0.0370
    1W        W41011   1.598  21.843   0.515 -0.1702 -0.1836 -0.1433
    1W        W41012  18.967  14.269   1.099  0.0279 -0.0319 -0.0416
    1W        W41013  18.666  22.989   1.630 -0.1498 -0.2631  0.1548
    1W        W41014  24.420   8.848   9.519  0.1223  0.1979  0.3552
    1W        W41015   1.390  17.727   9.531  0.2966  0.2397 -0.1133
    1W        W41016  25.461  23.060   7.180 -0.0094 -0.0059 -0.0660
    1W        W41017  11.120  11.470   2.518  0.1372 -0.2250  0.1848
    1W        W41018   8.343  25.134   2.571 -0.0107  0.2978  0.1942
    1W        W41019  19.767   2.323   0.304  0.3161  0.1018  0.2159
    1W        W41020  28.970   0.063   9.414 -0.1435  0.0112 -0.0021
    1W        W41021  25.536  24.190   7.088 -0.0919 -0.2071  0.2091
    1W        W41022   7.988   7.221   9.180 -0.5284 -0.1255  0.2137
    1W        W41023  25.271   8.510   8.916  0.2713 -0.0381 -0.0213
    1W        W41024  21.546   1.406   6.284 -0.0771 -0.1597  0.0547
    1W        W41025  13.292  13.508   2.562  0.0972 -0.0409 -0.0960
    1W        W41026  27.859  24.595   2.729  0.3196 -0.1036 -0.1126
    1W        W41027  19.829  26.608   1.478  0.0337 -0.2335 -0.0202
    1W        W41028  19.385   2.568   8.588 -0.1070  0.1481 -0.1517
    1W        W41029  27.413   4.929   8.598 -0.0325  0.0508  0.1398
    1W        W41030   4.129  16.716   9.271  0.1486 -0.0022 -0.2240
    1W        W41031  13.178  12.860   0.365  0.1869  0.0930 -0.2890
    1W        W41032  17.193  19.887   0.298 -0.0199  0.0368 -0.1277
    1W        W41033  22.649  18.737   0.772  0.1307 -0.3457 -0.1745
    1W        W41034  18.387  19.106   9.606 -0.3761  0.0022 -0.1204
    1W        W41035  22.376  21.178   1.686  0.0861 -0.0292 -0.1668
    1W        W41036   8.428  16.677   8.174 -0.2059  0.1910  0.2090
    1W        W41037   3.830  20.231   1.130 -0.0063 -0.0358 -0.0961
    1W        W41038  10.396   0.009   2.024  0.1409 -0.3250 -0.3779
    1W        W41039   5.209  16.706   1.400  0.0235  0.0924 -0.2477
    1W        W41040   1.755  14.986   9.336 -0.0328  0.0123  0.1642
    1W        W41041   0.804  18.622   1.192  0.1577  0.0519  0.1264
    1W        W41042  10.480   8.315   2.238  0.1315 -0.0957  0.0550
    1W        W41043  27.427   6.232   7.800 -0.0982  0.3004 -0.0154
    1W        W41044   6.311   2.731   2.813  0.0032 -0.1340  0.0633
    1W        W41045  19.692  14.547   1.556  0.1212  0.2126  0.0552
    1W        W41046   1.874  14.070   9.228  0.2103 -0.2858 -0.0091
    1W        W41047  15.062   0.481   7.449  0.0394 -0.0607 -0.3904
    1W        W41048  18.260  18.620   9.544 -0.0563 -0.0716  0.3339
    1W        W41049  11.661   1.408   3.929 -0.1183  0.0638 -0.0419
    1W        W41050  12.222   5.188   2.386  0.0052  0.1214 -0.2339
    1W        W41051   5.264  27.983   1.030 -0.0212 -0.1831  0.2214
    1W        W41052  25.995  15.398   1.235  0.1101 -0.1335  0.0793
    1W        W41053  18.130   2.986   6.982  0.0924  0.1018 -0.1062
    1W        W41054  12.219  24.266   7.272  0.1870  0.1187 -0.1707
    1W        W41055   6.568  21.290   1.638 -0.0156  0.3397  0.0275
    1W        W41056  19.330  17.280   0.133 -0.4093  0.0831  0.2419
    1W        W41057  27.863  21.271   1.245  0.1609  0.1499 -0.0473
    1W        W41058   8.447  23.731   8.582 -0.0424  0.0779 -0.1516
    1W        W41059  11.391  10.467   8.929 -0.0946  0.0878  0.1764
    1W        W41060   8.756   3.731   1.809  0.0197  0.1060 -0.0406
    1W        W41061  19.655  17.267   8.407 -0.0392  0.1878  0.0998
    1W        W41062   8.580  15.504   0.395  0.1200 -0.0973 -0.2636
    1W        W41063  12.816   5.608   3.472 -0.0975 -0.1291 -0.0962
    1W        W41064  15.191   7.412   3.040  0.0628 -0.1476  0.1240
    1W        W41065  23.912  16.202   7.353 -0.0564 -0.0120 -0.1765
    1W        W41066  22.307  28.016   7.792 -0.0661 -0.1520  0.1655
    1W        W41067  24.401  14.384   1.449 -0.1004 -0.0712  0.4113
    1W        W41068   2.490   8.046   1.818 -0.1661  0.0446  0.2032
    1W        W41069  19.825   3.723   0.711  0.0814 -0.3397 -0.0968
    1W        W41070  10.220   5.470   7.701 -0.0331  0.0397  0.2242
    1W        W41071   9.838  12.247   8.901  0.0093 -0.0780  0.2318
    1W        W41072   5.002   9.000   0.416 -0.1174 -0.0472 -0.1229
    1W        W41073   2.877   4.771   0.747  0.1690  0.0372 -0.0820
    1W        W41074   6.423   0.493   6.810  0.0097 -0.1329 -0.1536
    1W        W41075  10.048  28.009   8.380  0.2031  0.1157  0.0716
    1W        W41076   9.956  27.009   8.138  0.0461 -0.0349 -0.0659
    1W        W41077   1.087  23.303   0.184 -0.1608 -0.1597  0.3548
    1W        W41078  18.223  26.141   2.733 -0.4899 -0.3145  0.0343
    1W        W41079  12.849  12.545   0.098  0.1532 -0.1841 -0.0887
    1W        W41080   1.888  22.616   7.223 -0.3373 -0.2538  0.2304
    1W        W41081  11.711  12.160   1.871 -0.0893  0.0905 -0.2841
    1W        W41082  12.210  20.307   9.563  0.4516 -0.1643 -0.0056
    1W        W41083   0.550  22.110   8.723  0.1845 -0.0433 -0.2384
    1W        W41084  16.185   7.838   1.703  0.1225 -0.1465  0.0473
    1W        W41085  19.945   8.776   6.891 -0.1120  0.0428 -0.1084
    1W        W41086   4.865   2.454   8.946 -0.1956  0.1436  0.0792
    1W        W41087  20.252  15.140   0.717 -0.1972  0.3788  0.0252
    1W        W41088   0.480  25.796   7.847 -0.2601 -0.3463 -0.0118
    1W        W41089   6.910  14.557   8.199  0.1587 -0.0528  0.1894
    1W        W41090  13.449   3.161   1.418  0.2159 -0.2733  0.0741
    1W        W41091   3.675   2.472   6.541  0.0219  0.0417 -0.1705
    1W        W41092  28.994   7.947   7.413 -0.0589  0.2395  0.1044
    1W        W41093  10.851   0.874   1.160  0.0692  0.3060  0.1040
    1W        W41094  22.647  13.968   7.885 -0.1196  0.3292  0.0452
    1W        W41095  26.637  22.380   8.331  0.0368  0.2264  0.2178
    1W        W41096  29.329   1.064   2.834 -0.3236 -0.2237 -0.3322
    1W        W41097   5.192  18.618   9.394 -0.1852 -0.1460  0.1236
    1W        W41098   0.482  10.692   8.842 -0.0317 -0.0672  0.1036
    1W        W41099  29.258  20.281   7.896 -0.2017 -0.0289  0.0221
    1W        W41100  19.447  24.912   1.951 -0.1619 -0.2741  0.3585
    1W        W41101  24.861   8.839   1.051 -0.1056  0.2368 -0.1037
    1W        W41102  26.956  26.377   9.027  0.2529  0.0259  0.0656
    1W        W41103  16.251  24.307   3.207 -0.0686 -0.0156  0.1262
    1W        W41104  11.765  24.285   8.772 -0.0705  0.0199  0.1317
    1W        W41105  25.137   9.785   2.716  0.0567  0.1713  0.0887
    1W        W41106  17.639  27.037   8.505  0.2663 -0.1558 -0.3391
    1W        W41107  24.981  19.544   2.848  0.0370  0.0132  0.0889
    1W        W41108  22.640  18.980   2.638 -0.2743  0.1888 -0.2508
    1W        W41109  25.339  11.480   8.825  0.0459 -0.1762  0.3089
    1W        W41110   5.242   5.067   7.953 -0.1203  0.1496 -0.0578
    1W        W41111  12.344  29.123   3.499  0.0667  0.2809 -0.2857
    1W        W41112   6.764  16.037   9.089  0.0811 -0.1038  0.1175
    1W        W41113  18.707  15.209   2.214  0.0685  0.0138 -0.2019
    1W        W41114  17.001   4.691   8.812  0.0055  0.1523 -0.1632
    1W        W41115  15.315  13.896   6.943 -0.2382  0.1198 -0.3341
    1W        W41116  11.886  26.262   9.494 -0.3502  0.0291  0.1137
    1W        W41117  24.720   3.704   6.745  0.0890 -0.0380 -0.2200
    1W        W41118   9.474  19.378   7.075 -0.0033  0.1936 -0.0288
    1W        W41119   5.747   2.363   9.607  0.2218 -0.1519 -0.1130
    1W        W41120  10.286  24.749   2.836  0.2178 -0.0252  0.1752
    1W        W41121  21.634  28.399   0.093 -0.1265 -0.1304 -0.0957
    1W        W41122   8.780  19.379   7.763 -0.2678  0.0384  0.2025
    1W        W41123  28.060  14.299   7.489 -0.0864  0.1239 -0.0843
    1W        W41124   3.203  17.375   0.889  0.1663 -0.1316 -0.0251
    1W        W41125   0.991   5.579   0.275 -0.0519  0.1464 -0.2836
    1W        W41126  11.961  21.241   6.762  0.0056 -0.2031 -0.0101
    1W        W41127  12.260  23.819   2.606  0.0671  0.1781 -0.4021
    1W        W41128  22.999   7.110   1.786  0.0297 -0.3379 -0.0239
    1W        W41129  18.508  10.470   1.918  0.2850 -0.1077  0.0136
    1W        W41130   7.832  21.656   0.743 -0.0066 -0.2243  0.0743
    1W        W41131   2.147  14.553   9.237 -0.2442  0.0914  0.3012
    1W        W41132  17.267  25.032   8.435 -0.0388 -0.2101  0.0101
    1W        W41133  10.880  17.381   9.683  0.1231  0.0849  0.1620
    1W        W41134   6.141  24.185   1.916  0.0914 -0.1736  0.1929
    1W        W41135  25.965  10.427   7.402 -0.0661  0.2063  0.2094
    1W        W41136  24.392  15.732   1.909  0.0974  0.2449  0.1759
    1W        W41137  15.399   5.593   9.177  0.1778 -0.4004 -0.2838
    1W        W41138   8.499  25.865   1.916  0.0426 -0.1026  0.1699
    1W        W41139   7.570   3.715   1.864  0.0355  0.0209  0.1595
    1W        W41140  16.258   1.129   3.322 -0.1433 -0.1644 -0.2668
    1W        W41141  12.103   1.362   2.577 -0.1398 -0.0776 -0.0605
    1W        W41142   7.303  28.886   0.531 -0.0906  0.1933  0.1841
    1W        W41143   2.285   2.824   0.654 -0.0481 -0.0225 -0.2694
    1W        W41144   5.620  25.709   1.292  0.0918  0.1959 -0.2110
    1W        W41145  20.473  12.929   1.279 -0.1652  0.2245 -0.5121
    1W        W41146  24.544   2.507   9.288  0.2132 -0.1637 -0.0350
    1W        W41147  19.019   9.823   7.701 -0.1134  0.0736 -0.0674
    1W        W41148  20.151  26.754   8.722  0.1814 -0.0577 -0.2156
    1W        W41149   4.268  14.325   2.125  0.1381 -0.0742  0.1483
    1W        W41150  17.976  12.933   7.871  0.1379  0.3496 -0.2411
    1W        W41151  15.800  20.455   9.054  0.0430 -0.3276 -0.1320
    1W        W41152   7.987  25.270   7.855 -0.0514  0.0502 -0.1386
    1W        W41153  15.068  17.103   1.016 -0.2437  0.0877  0.2021
    1W        W41154  16.234  10.689   1.729 -0.0436 -0.2120  0.2072
    1W        W41155  16.812  12.754   0.466 -0.3194  0.3957 -0.0694
    1W        W41156  11.185   4.643   1.804  0.2594 -0.1914 -0.2065
    1W        W41157  20.650  26.743   2.827  0.0351 -0.1268  0.1078
    1W        W41158  27.128   6.199   6.110  0.2609  0.1626  0.0204
    1W        W41159  28.949  14.726   1.590  0.0050  0.1944  0.0681
    1W        W41160   9.710  28.994   1.306 -0.2137  0.2180  0.0312
    1W        W41161   8.816  16.829   8.994 -0.0768  0.0749  0.1363
    1W        W41162  25.810  25.637   9.224 -0.0721  0.0173 -0.0952
    1W        W41163  26.755   7.569   6.189 -0.1754 -0.3429  0.0486
    1W        W41164   6.203   3.983   7.615 -0.2432 -0.0293  0.3035
    1W        W41165  24.327   1.333   0.239 -0.2906  0.0189 -0.2789
    1W        W41166  26.146  17.829   6.076 -0.0262  0.0648  0.0331
    1W        W41167   9.548   2.632   2.771 -0.0483  0.1864 -0.3319
    1W        W41168  18.420   5.114   2.438  0.0370 -0.0353 -0.0029
    1W        W41169  16.586  11.427   7.794  0.1676  0.1525 -0.1902
    1W        W41170  24.507   1.230   2.897 -0.0193 -0.0051  0.0201
    1W        W41171  21.933  29.275   1.712  0.1833  0.3060  0.0099
    1W        W41172  21.778  28.413   8.761  0.2668  0.2574  0.2450
    1W        W41173  27.381   4.693   0.035 -0.1541  0.1614 -0.1289
    1W        W41174  20.958  14.390   0.505  0.1235 -0.0032 -0.1478
    1W        W41175  25.218   6.767   0.381 -0.2964 -0.1255  0.0662
    1W        W41176   2.722   6.393   1.674 -0.0739  0.0737  0.0127
    1W        W41177  19.067   2.667   6.857  0.0610 -0.2870  0.0196
    1W        W41178   4.032  16.949   0.678 -0.1219 -0.2664  0.0760
    1W        W41179  24.964  18.006   6.811 -0.0465  0.0038 -0.2772
    1W        W41180   7.529  16.215   0.104  0.0329  0.1748  0.1874
    1W        W41181  26.433  15.305   7.397 -0.1612 -0.0839  0.3117
    1W        W41182  25.804   8.567   1.840  0.0248  0.4402 -0.1144
    1W        W41183   9.531   1.087   3.111 -0.0097 -0.1812 -0.3280
    1W        W41184   5.985   3.436   1.487  0.0778 -0.2471 -0.0541
    1W        W41185  23.157  12.848   7.011  0.0219 -0.0900  0.0179
    1W        W41186  25.729  28.223   6.909 -0.3028  0.3271  0.4115
    1W        W41187  19.384  25.478   2.750  0.2048  0.1865  0.0366
    1W        W41188   9.567   1.093   9.102  0.1347 -0.1282 -0.1501
    1W        W41189  12.084  20.592   7.142 -0.0971  0.1803  0.0512
    1W        W41190  24.042  25.861   8.495  0.0478  0.2290 -0.2789
    1W        W41191   6.147   9.861   7.959  0.0103 -0.0892 -0.0569
    1W        W41192   9.343   4.328   0.113 -0.1110  0.0923  0.0455
    1W        W41193   5.615  17.822   1.665  0.1375  0.3813  0.2435
    1W        W41194   3.990  27.182   7.728 -0.0801 -0.4310 -0.3357
    1W        W41195   9.624   8.739   0.568  0.0811  0.0188  0.3174
    1W        W41196  20.167  28.638   7.450  0.2390 -0.2832  0.0667
    1W        W41197  24.482  20.530   1.755  0.3039 -0.1650  0.1093
    1W        W41198  11.461   0.886   1.419 -0.1411  0.0754  0.1558
    1W        W41199  16.241   5.890   9.267 -0.0015  0.2546 -0.2033
    1W        W41200  25.063  11.604   0.038  0.0272  0.0896  0.0051
    1W        W41201   8.972  23.299   8.238  0.2152  0.3866  0.0057
    1W        W41202   8.804   9.562   0.525 -0.1221  0.2200 -0.2613
    1W        W41203   7.189  23.500   6.188 -0.0848 -0.1594 -0.1097
    1W        W41204  27.036  26.704   8.620 -0.2160  0.2512 -0.1621
    1W        W41205  27.512   3.136   2.502 -0.3609  0.2155 -0.1972
    1W        W41206   6.935  26.874   7.651  0.1127  0.1759  0.1757
    1W        W41207   4.080  17.078   6.895  0.0911 -0.2381 -0.0858
    1W        W41208  11.998   0.981   7.435  0.1996 -0.0573  0.1724
    1W        W41209   0.013  25.681   8.658 -0.2232 -0.1404  0.2929
    1W        W41210  21.916  22.303   2.958 -0.0510 -0.0536  0.0904
    1W        W41211  12.947  13.056   9.623  0.4144  0.0156  0.1178
    1W        W41212  13.816  24.386   3.298  0.0953  0.0656 -0.2154
    1W        W41213  17.376   2.318   8.068  0.4481 -0.1323 -0.3365
    1W        W41214  23.739  10.737   0.533 -0.0061  0.1858 -0.2462
    1W        W41215  18.431  11.264   8.319 -0.2045  0.1408  0.2757
    1W        W41216   9.348  15.790   7.501 -0.2384 -0.3639  0.2158
    1W        W41217  21.733   4.362   7.350 -0.0257 -0.1320 -0.0734
    1W        W41218  28.408  21.164   1.314  0.2946  0.5419  0.0010
    1W        W41219  15.972  18.783   9.249  0.1616 -0.0943 -0.1662
    1W        W41220   6.228   2.420   7.448 -0.1443  0.0686 -0.0918
    1W        W41221  14.673  26.510   0.019  0.3633 -0.0200 -0.0349
    1W        W41222   6.453   7.356   9.115  0.0747 -0.3193  0.0488
    1W        W41223   2.598   3.985   0.510  0.1991  0.2154 -0.0794
    1W        W41224   6.945   8.366   2.230 -0.0312  0.0815  0.0450
    1W        W41225  27.878  10.091   8.474  0.0160 -0.1291 -0.2759
    1W        W41226  27.657  13.767   6.167  0.1135  0.1332 -0.0268
    1W        W41227  13.200  23.732   7.230  0.1947  0.1991 -0.0573
    1W        W41228   1.219  12.843   6.770 -0.0868 -0.0550  0.1554
    1W        W41229   1.258  28.439   9.057 -0.2900  0.1548 -0.1367
    1W        W41230  22.840  22.807   0.423  0.1840  0.1893 -0.0384
    1W        W41231  10.223   4.002   8.078  0.0279 -0.0125 -0.0545
    1W        W41232   6.141   3.184   1.054  0.0503  0.1623 -0.1642
    1W        W41233  24.686  26.175   2.885  0.1491 -0.0489 -0.0717
    1W        W41234  25.409   3.122   7.009 -0.0231  0.0850 -0.1252
    1W        W41235  14.682  23.133   1.851 -0.0484  0.2048 -0.1184
    1W        W41236  16.562  27.708   8.182  0.1853  0.2691 -0.0345
    1W        W41237   0.038  25.208   1.248  0.1254  0.2100  0.3042
    1W        W41238  24.483  17.564   7.460  0.0715 -0.0700  0.0766
    1W        W41239   6.780  25.091   1.952 -0.1784  0.3143  0.4620
    1W        W41240  14.695  10.046   8.865  0.0610 -0.3246  0.4128
    1W        W41241   4.209  20.705   6.795 -0.0658  0.2556 -0.0681
    1W        W41242  20.025  22.244   2.201 -0.1875 -0.1244  0.2081
    1W        W41243  23.436   6.914   3.070 -0.0280  0.3406  0.0695
    1W        W41244   6.560  26.613   2.313  0.2459 -0.0239  0.2816
    1W        W41245   7.346  21.470   8.814  0.1786 -0.1752  0.2013
    1W        W41246  19.544   8.189   8.927  0.1222  0.2355  0.1148
    1W        W41247   7.115  28.789   2.021 -0.3210  0.2598 -0.1658
    1W        W41248  18.745   0.559   0.951 -0.2627 -0.0536 -0.2466
    1W        W41249  24.246   2.765   7.949 -0.0339 -0.0100 -0.0414
    1W        W41250  20.489   2.524   1.535 -0.0997  0.0366  0.0141
    1W        W41251  22.548  16.172   1.158  0.2204 -0.0682  0.2516
    1W        W41252  24.670  12.621   1.598  0.3613  0.0422  0.3035
    1W        W41253  16.421  24.908   6.752  0.1161  0.2671 -0.1075
    1W        W41254   9.413   3.706   0.037  0.3050  0.3600  0.0679
    1W        W41255  16.387  14.857   8.726 -0.0913 -0.0599  0.0101
    1W        W41256  13.663  18.380   0.771 -0.0661  0.0585 -0.2795
    1W        W41257  15.897  19.736   0.933  0.0216 -0.2032 -0.0841
    1W        W41258   5.683  26.228   1.233  0.0348  0.2076 -0.1202
    1W        W41259  27.665   0.126   6.461 -0.1328 -0.2075 -0.1776
    1W        W41260   6.622  14.269   8.970  0.0934  0.1383 -0.0423
    1W        W41261  23.806  19.101   1.890  0.1261 -0.0684 -0.1055
    1W        W41262  19.662  17.145   1.546  0.0418 -0.1471 -0.3992
    1W        W41263   1.111  14.728   0.842  0.2350  0.0130 -0.3577
    1W        W41264  15.138  18.728   1.633  0.0094  0.2322 -0.1687
    1W        W41265  23.609  28.303   2.284  0.0574 -0.3412  0.1381
    1W        W41266  11.960   6.372   8.809  0.1247  0.0944 -0.1858
    1W        W41267   4.793  16.308   8.289  0.3767  0.3393  0.0463
    1W        W41268  23.142   6.319   6.679 -0.0023 -0.2784  0.3112
    1W        W41269   9.501  21.450   6.638 -0.0521  0.0401  0.0120
    1W        W41270  26.563  19.227   0.155  0.0557  0.2253  0.3814
    1W        W41271   6.383  15.899   2.167  0.2535  0.0984 -0.0816
    1W        W41272   1.254  16.335   7.711 -0.1191  0.0498 -0.1858
    1W        W41273   6.455   8.633   2.211 -0.0752  0.3528 -0.1141
    1W        W41274  12.119  22.928   8.491  0.0371  0.2056 -0.1293
    1W        W41275   7.618  23.750   9.280  0.0841 -0.0390 -0.1273
    1W        W41276  19.111   9.497   0.081 -0.0923  0.0603  0.3036
    1W        W41277  12.657  25.351   8.186 -0.1147 -0.0211  0.1996
    1W        W41278  20.458  19.691   8.401 -0.0145 -0.0299 -0.1865
    1W        W41279   4.857  17.122   5.187  0.0423 -0.1063  0.1350
    1W        W41280  19.595   8.605   7.630 -0.2538  0.1248  0.0858
    1W        W41281  16.605  24.256   3.517 -0.0360 -0.2250  0.2960
    1W        W41282  14.652  29.121   3.194  0.0900  0.0731  0.3688
    1W        W41283  11.866  28.501   0.005  0.1139  0.1403 -0.0637
    1W        W41284   4.932  15.702   1.197 -0.2136  0.0831 -0.3277
    1W        W41285   8.920  15.363   0.897 -0.2825 -0.2845  0.1714
    1W        W41286  15.849  18.249   7.826  0.2206  0.0809  0.0839
    1W        W41287   3.379   7.354   7.577  0.2030  0.2478  0.0889
    1W        W41288  10.488  13.961   1.610  0.0019 -0.1276  0.2306
    1W        W41289  28.743  12.596   1.144  0.1641 -0.1067 -0.0023
    1W        W41290  26.362   1.927   7.930  0.0320  0.0869 -0.0305
    1W        W41291  29.228   6.199   1.834 -0.3106  0.1153  0.1843
    1W        W41292   5.993  28.470   1.953  0.4972  0.0541  0.3707
    1W        W41293  13.256  17.559   7.380  0.0028 -0.1689  0.2441
    1W        W41294   1.829  10.822   8.372  0.0806  0.0095  0.0351
    1W        W41295  11.589   1.562   8.453  0.0510 -0.0573 -0.0042
    1W        W41296  10.344   1.949   8.752  0.0526 -0.0612  0.1571
    1W        W41297  18.649  24.559   0.436  0.0546 -0.2016  0.6019
    1W        W41298  17.690  13.310   1.587 -0.1034  0.1953 -0.1423
    1W        W41299  25.290  25.946   8.611 -0.2763 -0.0219  0.1315
    1W        W41300  20.505  29.202   0.073  0.0618 -0.1198  0.0932
    1W        W41301   4.067  21.793   8.648  0.0567 -0.1505 -0.0816
    1W        W41302  16.033   8.331   9.018 -0.0175 -0.2304  0.0652
    1W        W41303  22.589   1.508   6.500  0.1065 -0.0252  0.0644
    1W        W41304  11.334   0.992   0.894  0.2441  0.0538  0.1767
    1W        W41305  13.050  26.811   8.985  0.0129 -0.0648  0.0754
    1W        W41306  19.959  15.181   9.468  0.0982 -0.0566  0.1795
    1W        W41307   2.099  12.725   0.808 -0.1869 -0.2418  0.0973
    1W        W41308  12.207  22.584   0.915 -0.0163 -0.1207 -0.0851
    1W        W41309  10.143  10.829   9.329  0.1374  0.0135 -0.0372
    1W        W41310   9.726   9.613   1.923 -0.1972 -0.2116  0.1407
    1W        W41311  14.693   7.513   9.640  0.2937  0.4730  0.0309
    1W        W41312   4.962  13.482   9.343  0.1907  0.1511  0.1197
    1W        W41313   5.437   8.194   9.050 -0.3133 -0.1721 -0.0628
    1W        W41314  19.053   5.608   1.910 -0.1759  0.2799 -0.0462
    1W        W41315   6.023   6.697   7.685  0.0847  0.2705  0.1142
    1W        W41316  22.390  23.478   8.943 -0.3607  0.3501 -0.1173
    1W        W41317  28.171  20.570   1.615 -0.0182 -0.1523 -0.1029
    1W        W41318   0.654  10.855   0.889  0.1239  0.4503  0.2012
    1W        W41319  28.704  25.505   7.438  0.0812 -0.0917 -0.0817
    1W        W41320   6.320  21.614   8.649  0.4839 -0.1665  0.0982
    1W        W41321   5.127  10.587   0.155  0.2116  0.2998  0.3809
    1W        W41322   5.358  19.457   1.431 -0.0935  0.0448 -0.0442
    1W        W41323   2.843  17.358   8.908  0.1213  0.2933 -0.1362
    1W        W41324  20.606  23.224   8.741  0.3894  0.1801 -0.1807
    1W        W41325  22.518  22.703   0.908  0.1910 -0.0732  0.1142
    1W        W41326  26.685  11.720   9.611 -0.4308 -0.0686  0.0797
    1W        W41327  27.974   6.008   7.836  0.1339 -0.0881 -0.2685
    1W        W41328  24.792   0.863   1.892  0.0281  0.3868  0.1283
    1W        W41329  24.799   5.399   2.408  0.1745  0.0063 -0.1164
    1W        W41330  18.788   0.082   9.089  0.2642  0.4009  0.0813
    1W        W41331  23.080   1.000   0.772 -0.0107 -0.1696 -0.0321
    1W        W41332  22.376  28.419   7.433  0.3260  0.4163 -0.1055
    1W        W41333  19.559   3.914   7.464  0.2080 -0.0017  0.0875
    1W        W41334   6.539  11.710   2.687  0.1049  0.1524  0.1283
    1W        W41335   6.037  22.568   8.266 -0.0049 -0.2930 -0.1947
    1W        W41336   8.649  27.200   1.486  0.0891 -0.1976 -0.3600
    1W        W41337  20.671   3.511   7.107  0.1066 -0.1767  0.0165
    1W        W41338  23.119   5.421   0.856  0.1269 -0.1668  0.0058
    1W        W41339   3.939  27.388   1.182 -0.2576  0.1088  0.2008
    1W        W41340  24.860   2.457   1.945  0.0634 -0.1787  0.3455
    1W        W41341  23.245  29.108   7.759 -0.2724  0.0713  0.1804
    1W        W41342  10.740  12.581   8.735 -0.2069 -0.3442  0.0293
    1W        W41343  12.329   9.446   9.458 -0.0874 -0.2902 -0.3063
    1W        W41344  15.050  25.036   2.301 -0.1049 -0.2606 -0.3077
    1W        W41345   6.835  23.282   9.479 -0.4040  0.0494 -0.0570
    1W        W41346   2.266  24.237   2.040 -0.1444  0.2087  0.0513
    1W        W41347   7.636   8.211   9.237  0.1593  0.1502  0.2677
    1W        W41348   0.334   8.537   7.079 -0.1952  0.2119  0.0434
    1W        W41349  13.480   1.396   1.264  0.0574  0.1240 -0.0550
    1W        W41350  13.124  26.730   2.987 -0.3357  0.2863  0.0806
    1W        W41351  17.852  21.388   2.891  0.1529 -0.1242 -0.1139
    1W        W41352   2.403  23.294   2.923  0.0415 -0.1922  0.2859
    1W        W41353  16.906   3.887   9.093  0.0937 -0.0111 -0.1597
    1W        W41354   1.885  25.188   7.090  0.0461  0.2197 -0.1928
    1W        W41355  25.702  22.358   1.213 -0.2587  0.0587  0.2889
    1W        W41356  16.817  15.261   1.675 -0.0172 -0.3896 -0.1498
    1W        W41357  25.354  26.994   2.421 -0.2832  0.0497  0.1750
    1W        W41358  23.244   1.568   1.944 -0.0737  0.2237  0.0549
    1W        W41359   1.545  24.976   2.808  0.1169 -0.0318  0.2611
    1W        W41360   4.866   3.870   9.116 -0.0104 -0.1183  0.2777
    1W        W41361  26.426   8.387   9.425 -0.2720 -0.0306  0.2484
    1W        W41362  24.340   1.604   9.480  0.2656 -0.1445 -0.1865
    1W        W41363  14.675  16.806   2.117 -0.0193  0.0633  0.2270
    1W        W41364   9.227  20.761   1.602 -0.0130  0.2938  0.0186
    1W        W41365  14.431  19.810   8.500 -0.3183  0.0871  0.0208
    1W        W41366   9.524  27.729   2.390 -0.0386 -0.0867 -0.0401
    1W        W41367  20.420  20.349   0.102  0.2414  0.1461  0.2148
    1W        W41368   4.995  11.741   6.888  0.2065 -0.1262  0.2788
    1W        W41369  12.733  27.654   1.027  0.1345 -0.1508  0.1048
    1W        W41370  17.427  27.576   8.653 -0.1167 -0.1686 -0.1188
    1W        W41371   1.960  26.796   0.242  0.0025 -0.0286  0.0599
    1W        W41372  18.777  15.155   7.734 -0.0075 -0.1936 -0.1259
    1W        W41373   7.257  14.244   0.118 -0.0010 -0.1186 -0.2586
    1W        W41374  24.191  25.109   8.874 -0.0078 -0.2503  0.1566
    1W        W41375   5.168   4.002   7.285  0.1962  0.3537  0.1635
    1W        W41376  13.034  25.689   7.992  0.1528 -0.0426  0.2502
    1W        W41377  19.074  28.251   7.365  0.0384 -0.1599 -0.1685
    1W        W41378   0.026   5.066   0.795  0.1444  0.1859  0.0041
    1W        W41379   3.532  12.101   9.211  0.1382 -0.2562 -0.3123
    1W        W41380  10.393  21.041   6.687  0.2525 -0.3267 -0.1278
    1W        W41381  19.962   0.556   7.323  0.0256  0.1520  0.0756
    1W        W41382  19.478   6.945   0.333  0.0236 -0.0761  0.0025
    1W        W41383  22.886   7.749   1.127 -0.2278  0.0008 -0.2849
    1W        W41384  18.973  28.322   9.501 -0.2196 -0.4111  0.0476
    1W        W41385   7.056  22.606   1.108  0.0977 -0.0140 -0.0378
    1W        W41386   3.240  13.472   7.606  0.0026  0.2379  0.1378
    1W        W41387  15.245  28.359   2.206  0.2319  0.0093  0.2156
    1W        W41388   7.916  27.048   0.752 -0.2765  0.4199 -0.0843
    1W        W41389  25.721   8.993   7.197 -0.1795  0.0516  0.0597
    1W        W41390   9.791  22.085   6.422  0.4552 -0.0143 -0.1408
    1W        W41391  24.107   1.830   2.455  0.1864  0.5219  0.0298
    1W        W41392  10.100  13.699   9.566  0.3854 -0.0429 -0.0562
    1W        W41393   4.696  23.000   8.126  0.0002 -0.2280  0.1674
    1W        W41394  28.783  28.288   0.198  0.0324 -0.2429 -0.0297
    1W        W41395  29.161  12.646   9.020 -0.1381 -0.1364 -0.0084
    1W        W41396   4.218   5.067   8.316  0.2469  0.1130 -0.1102
    1W        W41397  27.338  11.530   6.940  0.1021  0.1117 -0.3464
    1W        W41398   4.414  22.595   6.915  0.0187  0.1285  0.1500
    1W        W41399  26.754  24.847   0.239  0.2676  0.2901 -0.1345
    1W        W41400  12.780  28.925   0.369  0.0976  0.0246 -0.0021
    1W        W41401   2.608  15.769   0.654 -0.1779  0.1898  0.3804
    1W        W41402  10.212  27.430   1.391 -0.0231  0.0798  0.1974
    1W        W41403   4.996  24.100   8.272  0.2682 -0.0213  0.1682
    1W        W41404  23.955  11.429   9.484 -0.4482 -0.0599  0.2434
    1W        W41405  19.213  19.089   1.304  0.1021  0.1228  0.0933
    1W        W41406  14.566  14.145   9.489  0.1772  0.4957 -0.0791
    1W        W41407  23.737   2.349   1.630 -0.1843  0.2246 -0.1485
    1W        W41408  12.809  17.238   7.803  0.2001  0.0499  0.1956
    1W        W41409   9.120  28.192   9.681  0.2173 -0.2685  0.1459
    1W        W41410  29.035   1.758   9.453  0.1863  0.2151 -0.0550
    1W        W41411  12.974   2.574   3.370 -0.2033  0.1026  0.0580
    1W        W41412  19.681  14.022   8.728 -0.2819  0.0535  0.0474
    1W        W41413  25.688  27.102   8.586 -0.1669 -0.1184 -0.0726
    1W        W41414  20.358  26.797   8.256  0.1422 -0.3486 -0.2155
    1W        W41415   0.419   7.190   7.800  0.0121  0.2513 -0.0215
    1W        W41416  21.164  17.925   0.872 -0.1217  0.2325  0.0970
    1W        W41417  25.719  26.012   7.166  0.1637 -0.0333 -0.1570
    1W        W41418  11.248   5.469   8.475  0.1555 -0.1768  0.3053
    1W        W41419   1.530  11.217   0.206 -0.0100 -0.0817  0.0474
    1W        W41420   4.019  17.772   9.629 -0.1099 -0.1564 -0.2051
    1W        W41421   2.013  12.466   3.060 -0.0444  0.1779 -0.4323
    1W        W41422   9.552   8.336   9.264 -0.0302  0.2577  0.1637
    1W        W41423   5.338   5.125   9.410 -0.0176  0.0357 -0.0841
    1W        W41424  10.823  23.668   9.091 -0.1634  0.0818 -0.1056
    1W        W41425  25.255  22.715   2.923  0.0567 -0.0088 -0.1092
    1W        W41426   9.558  11.151   0.343 -0.2290 -0.2937  0.0165
    1W        W41427  22.115  17.136   6.870 -0.1499  0.1905  0.1217
    1W        W41428  14.327  10.431   2.354  0.0730  0.1274 -0.1920
    1W        W41429  27.769  15.475   0.994  0.2080  0.0187  0.0126
    1W        W41430   8.457   5.269   2.410  0.3076  0.1833 -0.1582
    1W        W41431   9.170   6.828   8.356 -0.0533  0.2626  0.2148
    1W        W41432  17.167  19.907   2.837 -0.0653  0.3840  0.0352
    1W        W41433  25.503   6.076   2.477  0.1578 -0.1983 -0.1021
    1W        W41434  21.772  25.761   3.599  0.1957  0.1244  0.0709
    1W        W41435  14.805   1.232   3.967 -0.1384  0.0262 -0.0059
    1W        W41436  26.575  19.825   9.516 -0.0711  0.3739 -0.0320
    1W        W41437   7.776  22.156   6.868 -0.2907 -0.1507  0.0112
    1W        W41438   3.969   3.246   8.369 -0.1780  0.2709 -0.1952
    1W        W41439   4.098  15.891   6.743 -0.0579  0.1130 -0.1529
    1W        W41440   2.753  23.861   0.915  0.2404  0.0099  0.0077
    1W        W41441  23.763   7.845   1.722  0.0752  0.3432  0.0585
    1W        W41442  17.258  25.689   9.022 -0.0211 -0.1928 -0.0559
    1W        W41443   2.947   9.272   8.688 -0.1559 -0.0483 -0.0218
    1W        W41444  19.756   5.115   2.975  0.1581 -0.0347  0.0038
    1W        W41445   3.559  22.655   7.647  0.0820  0.1539 -0.1053
    1W        W41446  14.708   9.156   1.258  0.1848 -0.0098  0.2680
    1W        W41447  11.087   9.985   2.373  0.0799  0.3078 -0.0275
    1W        W41448  17.583   5.288   2.023 -0.2996 -0.2224  0.0908
    1W        W41449  17.404  21.748   9.598  0.1070 -0.1329 -0.0957
    1W        W41450  24.623  27.387   2.256 -0.0643 -0.3189  0.0687
    1W        W41451  15.803  20.049   8.286  0.1607 -0.1187 -0.0102
    1W        W41452  12.685  23.230   2.526  0.0316 -0.0091  0.1594
    1W        W41453  25.391  29.223   8.782 -0.2378 -0.1227  0.2517
    1W        W41454   9.112   4.263   8.009 -0.0769 -0.0355  0.0636
    1W        W41455  16.428  12.796   7.907  0.3304 -0.1000 -0.0019
    1W        W41456   8.319   3.158   7.843  0.2578 -0.1058 -0.1055
    1W        W41457   2.806   3.913   8.329  0.2417 -0.0761  0.1095
    1W        W41458  21.360   5.571   1.887  0.2245  0.3225  0.2836
    1W        W41459   0.950   6.360   0.702 -0.0161 -0.2358  0.0036
    1W        W41460  16.844  22.647   1.703 -0.2091  0.0827  0.1061
    1W        W41461  22.553  28.129   0.242  0.0647 -0.0890  0.1732
    1W        W41462   5.565  14.130   9.363 -0.0537 -0.1667  0.1654
    1W        W41463  18.199   1.891   1.480  0.0256 -0.0019 -0.0088
    1W        W41464  22.652  21.268   7.965 -0.0429 -0.0466 -0.3961
    1W        W41465  29.047  23.946   0.413  0.2591  0.4006 -0.1120
    1W        W41466  28.863  12.451   7.338 -0.0664  0.0253  0.0788
    1W        W41467  28.687  24.922   1.517  0.0280  0.1942  0.1519
    1W        W41468  14.169   2.235   2.773 -0.0557  0.2103 -0.0259
    1W        W41469  18.835   1.512   2.041  0.1010  0.1026  0.1863
    1W        W41470  29.247  28.515   8.880  0.0529  0.2615 -0.0924
    1W        W41471  20.889  14.911   7.919  0.0751  0.0121 -0.3475
    1W        W41472   1.235  21.780   7.514 -0.1123 -0.4267 -0.1391
    1W        W41473  10.955   6.005   1.872 -0.1309  0.3397 -0.1537
    1W        W41474  26.850  22.496   6.526  0.1861 -0.0486 -0.2215
    1W        W41475  15.996  18.069   1.920 -0.2280  0.2189  0.1439
    1W        W41476  16.968  22.343   8.387 -0.1022  0.2015 -0.0184
    1W        W41477  24.088  24.976   2.984 -0.1798 -0.2489 -0.0478
    1W        W41478  23.989   6.596   9.478 -0.2131 -0.1774  0.2165
    1W        W41479  23.112   6.347   7.852 -0.1021 -0.3003 -0.1200
    1W        W41480  15.452   4.022   0.722  0.2415  0.3946  0.0616
    1W        W41481   1.279   5.976   0.659  0.4246 -0.0059  0.4027
    1W        W41482   6.254  27.738   7.373 -0.0192  0.0970  0.0618
    1W        W41483   6.859   8.653   6.921  0.4363 -0.0700  0.2790
    1W        W41484  27.073  10.572   1.926  0.1479  0.1188 -0.0599
    1W        W41485  26.663   3.642   1.169 -0.0989  0.1610  0.2769
    1W        W41486  28.567  18.263   9.060 -0.1758 -0.0848 -0.2677
    1W        W41487   5.759   1.092   7.802 -0.1561  0.1725  0.0458
    1W        W41488  14.591  28.275   3.762 -0.0698  0.3614 -0.1216
    1W        W41489  15.235  18.375   1.259  0.0528 -0.0630 -0.2646
    1W        W41490   3.404  25.964   2.458 -0.1479 -0.0878  0.3670
    1W        W41491  19.916   6.988   0.636  0.0396  0.4471 -0.2091
    1W        W41492  20.515   7.000   8.167 -0.0355 -0.1182 -0.2574
    1W        W41493  28.188  10.136   7.124  0.0242  0.3035 -0.0966
    1W        W41494  14.889   0.981   8.918 -0.0520  0.0787  0.2175
    1W        W41495  20.325  20.067   2.957 -0.2274 -0.3232  0.2999
    1W        W41496  15.729   0.222   8.281  0.0801  0.0160 -0.1682
    1W        W41497  18.626  13.887   0.933  0.1860  0.1874  0.1672
    1W        W41498  20.956   2.188   0.406  0.3184  0.1208 -0.1978
    1W        W41499  15.224  26.847   1.152 -0.1874  0.0126  0.3329
    1W        W41500   0.473  21.332   9.550  0.1952 -0.2987 -0.2012
    1W        W41501   7.012  20.223   1.257 -0.2191  0.3956  0.1807
    1W        W41502  13.707  27.453   1.555  0.2899 -0.3648 -0.2655
    1W        W41503   9.113   1.244   7.053  0.3718 -0.2781 -0.2759
    1W        W41504   6.401   6.065   9.193 -0.2131 -0.0090 -0.1015
    1W        W41505   6.278  27.999   2.728  0.3826  0.1247  0.1070
    1W        W41506  27.764  22.719   9.691 -0.2657 -0.0243  0.1653
    1W        W41507  16.159  11.506   2.216 -0.0117  0.0581  0.0919
    1W        W41508  19.283  22.737   9.308 -0.0191 -0.1179  0.1737
    1W        W41509  18.599   2.635   1.963 -0.0435  0.0420 -0.0453
    1W        W41510   3.952  24.474   2.101 -0.2849 -0.1153  0.1184
    1W        W41511  10.418   7.348   7.225  0.5843 -0.3993 -0.0019
    1W        W41512  16.061  26.058   0.998 -0.1836  0.0350  0.2698
    1W        W41513   5.379  10.935   9.629  0.3047 -0.0442  0.1733
    1W        W41514   0.568  20.714   8.978  0.1506  0.1979 -0.0548
    1W        W41515  27.959   8.202   1.344 -0.1692  0.2895 -0.2156
    1W        W41516  12.162   5.199   9.466 -0.0860  0.1302 -0.0586
    1W        W41517   7.343  17.102   2.250 -0.1590 -0.0513  0.0614
    1W        W41518   8.078   9.833   0.502 -0.2304 -0.1518 -0.2597
    1W        W41519   7.247  20.045   1.689  0.1676 -0.2128  0.3562
    1W        W41520  20.812   1.340   8.033 -0.3811 -0.2411  0.0180
    1W        W41521   6.159   0.137   3.715  0.0339  0.0144 -0.0710
    1W        W41522  26.478   6.916   1.286  0.1258  0.1291  0.0112
    1W        W41523  19.061   0.141   2.049  0.3569 -0.0473  0.0891
    1W        W41524  13.410  20.353   2.200 -0.0674  0.0689  0.0271
    1W        W41525  28.351  22.288   1.771 -0.3209 -0.3110 -0.0352
    1W        W41526   7.863  19.793   7.410 -0.2564 -0.2180 -0.1780
    1W        W41527   3.111  16.874   0.355  0.0333  0.2779  0.1682
    1W        W41528   8.523  26.045   7.027 -0.3205  0.1625 -0.2763
    1W        W41529  19.575   2.630   1.852 -0.0934  0.3491 -0.0641
    1W        W41530  11.208  26.916   0.355 -0.3568  0.2569  0.0002
    1W        W41531  10.625  24.202   1.708 -0.2094  0.0166  0.2374
    1W        W41532   0.166  25.489   2.773  0.0979 -0.0601 -0.0992
    1W        W41533  20.117  14.616   0.972  0.1869 -0.3466  0.0718
    1W        W41534  20.805  10.474   2.072  0.1983 -0.0911  0.2521
    1W        W41535  26.379  11.951   6.429 -0.0381  0.2236 -0.2224
    1W        W41536  14.632  15.170   0.435  0.0075 -0.1623  0.0665
    1W        W41537  12.371  11.303   2.893 -0.0559 -0.0343 -0.2682
    1W        W41538   6.514  18.395   9.089 -0.1404 -0.0429  0.1119
    1W        W41539  29.266   2.024   1.555  0.0890 -0.0161 -0.2846
    1W        W41540  14.939  10.381   8.526 -0.0343  0.3121 -0.2460
    1W        W41541  16.091  16.088   1.589  0.0059  0.2155  0.1127
    1W        W41542   2.357   7.417   8.399 -0.4041 -0.0560  0.0568
    1W        W41543   9.132  25.974   7.060  0.0172 -0.1813 -0.1696
    1W        W41544   3.732   9.173   7.442 -0.0166  0.1014  0.2230
    1W        W41545  16.829   6.443   9.172  0.0081  0.0425  0.0548
    1W        W41546   7.991  19.626   6.899  0.0165  0.1505 -0.3829
    1W        W41547   1.772  24.128   7.451  0.3106  0.1998 -0.0997
    1W        W41548  18.598  18.695   3.132 -0.1739  0.2313 -0.2026
    1W        W41549   2.148  13.878   1.480 -0.0844  0.0771  0.0605
    1W        W41550   0.968   5.776   5.820 -0.0340  0.1864  0.2226
    1W        W41551  21.563  24.817   1.154  0.0529 -0.2420 -0.1583
    1W        W41552   9.537   1.836   0.422 -0.0067 -0.2708  0.0155
    1W        W41553  26.630   8.754   7.895 -0.1502  0.0135  0.0845
    1W        W41554  16.925   5.112   2.177  0.0536  0.1843 -0.1306
    1W        W41555  25.838   3.862   8.208  0.0789 -0.1701  0.0312
    1W        W41556   3.498   7.876   7.592 -0.0638  0.6172  0.0585
    1W        W41557  17.083  12.520   8.515 -0.0801 -0.0882 -0.1578
    1W        W41558  28.729   0.688   2.188  0.2847  0.1770  0.0068
    1W        W41559   2.634  21.832   6.929 -0.2128 -0.0428 -0.3044
    1W        W41560  24.638  23.392   1.039  0.0951  0.1296 -0.1064
    1W        W41561   3.188   8.714   1.454 -0.2858  0.2052 -0.0512
    1W        W41562   6.320  14.864   8.334  0.0451 -0.0129  0.0612
    1W        W41563  25.855   4.667   7.446 -0.1349 -0.0738  0.1435
    1W        W41564  15.522  28.463   3.003  0.1578 -0.1297  0.0570
    1W        W41565   2.515  28.216   8.507 -0.2482  0.0742 -0.0639
    1W        W41566  21.947   4.549   1.216 -0.0156 -0.1005  0.0389
    1W        W41567   8.811  17.271   6.891 -0.1571 -0.2269 -0.2697
    1W        W41568  28.375  27.968   9.289  0.1032 -0.2891 -0.0248
    1W        W41569  28.187  12.486   6.769 -0.2056  0.0450  0.1918
    1W        W41570   3.318  15.552   8.146 -0.0971 -0.0385  0.3546
    1W        W41571  26.618  16.793   6.593 -0.0685  0.2789  0.0385
    1W        W41572  12.475  25.985   9.040 -0.1266 -0.2429 -0.1189
    1W        W41573  12.123   9.364   0.580 -0.3666 -0.1309 -0.0191
    1W        W41574   2.766   9.217   7.595 -0.2302 -0.1416 -0.2475
    1W        W41575   1.185  26.258   8.219  0.1402 -0.0859  0.1150
    1W        W41576  28.896  19.248   7.600  0.4218 -0.2801  0.3542
    1W        W41577   7.302   2.027   8.201 -0.1242  0.0293 -0.3114
    1W        W41578   9.343  16.657   7.944  0.1990  0.1035 -0.0092
    1W        W41579  21.087  14.532   7.582  0.1609 -0.0328 -0.2659
    1W        W41580  27.856  18.426   9.690 -0.0707  0.2098 -0.1132
    1W        W41581  13.008  17.400   9.540 -0.0956  0.0797 -0.0277
    1W        W41582   6.210   7.324   2.157 -0.1956 -0.0443 -0.0070
    1W        W41583  24.413  19.346   2.673 -0.0149  0.1012  0.1141
    1W        W41584  26.541  12.696   5.471 -0.0402  0.2595 -0.0669
    1W        W41585  24.133   6.587   0.221 -0.0440  0.0908 -0.0883
    1W        W41586   5.010  21.222   1.804  0.1471  0.0966  0.0536
    1W        W41587   8.334   1.354   0.796  0.3248  0.2794 -0.0530
    1W        W41588  18.536  11.328   0.973  0.1885  0.0302 -0.2123
    1W        W41589  29.063  23.527   1.449  0.0306 -0.2545 -0.1574
    1W        W41590  24.691  18.308   0.222 -0.3354  0.3559  0.1994
    1W        W41591   1.884  22.618   0.588  0.2738  0.2949 -0.1596
    1W        W41592   6.790  21.261   7.268 -0.1116 -0.0426  0.1818
    1W        W41593  15.472  13.977   2.069  0.3234 -0.3937 -0.0145
    1W        W41594  27.580   5.885   8.104  0.1076  0.0199  0.2945
    1W        W41595   3.894   9.837   8.276 -0.1445 -0.0397 -0.0897
    1W        W41596  26.321  24.381   1.061  0.0051  0.1186 -0.0503
    1W        W41597  14.469  23.963   0.023 -0.1645 -0.1955  0.1900
    1W        W41598  19.086   2.044   9.363 -0.0133  0.0823  0.1240
    1W        W41599  10.860   1.050   8.969  0.0556 -0.0206  0.2231
    1W        W41600  20.253  15.421   9.018 -0.3509  0.1275  0.0272
    1W        W41601  29.147   4.544   9.072 -0.1433  0.0707  0.1645
    1W        W41602  17.709  23.910   2.336  0.1124 -0.1282 -0.0585
    1W        W41603  20.829   0.213   6.878  0.1836  0.0088 -0.0810
    1W        W41604   2.348   1.874   0.776 -0.0031 -0.0866 -0.2785
    1W        W41605  14.411  21.998   0.313  0.0086  0.1067 -0.3252
    1W        W41606  17.823  14.959   9.444  0.0713 -0.0924  0.0886
    1W        W41607  10.132   9.770   9.082 -0.0220  0.1099  0.4730
    1W        W41608   6.077  23.265   1.838 -0.1622  0.1805  0.0779
    1W        W41609   2.959  20.073   6.561 -0.1567  0.1348 -0.0807
    1W        W41610  17.713   0.630   8.550 -0.1378  0.1384  0.2050
    1W        W41611  17.042  22.903   7.404 -0.0105 -0.0997  0.0779
    1W        W41612  26.791   6.620   6.618  0.2493 -0.3402  0.1560
    1W        W41613  18.568   9.587   6.933  0.3220 -0.0540  0.1157
    1W        W41614   1.954  22.189   7.529 -0.1958  0.2510  0.1611
    1W        W41615   1.675   9.154   1.556  0.1792 -0.0946  0.3457
    1W        W41616   6.552  27.372   7.658  0.2063  0.3667  0.2694
    1W        W41617  24.972   0.479   2.847 -0.1190  0.1302 -0.0227
    1W        W41618  23.523  20.464   3.614  0.0625 -0.0687  0.0835
    1W        W41619  20.334   6.477   8.332 -0.3921 -0.0574  0.1380
    1W        W41620   1.044  12.248   1.505 -0.0026  0.0836 -0.2673
    1W        W41621  16.408  19.886   0.690 -0.1583 -0.2448  0.3548
    1W        W41622  10.733   5.507   3.013  0.0627  0.0689 -0.2212
    1W        W41623   4.978  24.268   0.855  0.2533  0.1564  0.2618
    1W        W41624   0.917   1.001   0.893  0.1416  0.1137 -0.3134
    1W        W41625   7.243   9.596   2.438  0.4677  0.0254 -0.0937
    1W        W41626   1.927  10.243   2.354 -0.0576 -0.1743 -0.1412
    1W        W41627   4.808  13.042   2.538  0.1160  0.0989  0.4162
    1W        W41628  11.995  19.854   1.045 -0.0996  0.1503  0.1386
    1W        W41629   0.334  13.363   8.604 -0.2376 -0.1127  0.0135
    1W        W41630  21.665  10.418   8.374 -0.1886  0.2697 -0.1551
    1W        W41631  14.863  25.149   1.291 -0.1806 -0.1740  0.1834
    1W        W41632   1.353  23.830   1.106 -0.3192 -0.0567  0.1969
    1W        W41633   1.262  10.041   6.884  0.1317  0.0719  0.2682
    1W        W41634   8.126  27.245   2.174  0.1488  0.2947 -0.1607
    1W        W41635   1.729  17.989   0.088 -0.2048 -0.1302 -0.0502
    1W        W41636   7.654  18.466   2.163 -0.1321  0.0526 -0.1931
    1W        W41637  27.777   8.274   8.746 -0.0930  0.1565 -0.1270
    1W        W41638  25.028  10.355   8.659  0.2464  0.1382 -0.2825
    1W        W41639   3.208   9.071   9.369 -0.3103  0.3089 -0.0374
    1W        W41640  19.240  13.353   8.978  0.0288  0.1089 -0.0907
    1W        W41641  20.987   5.638   1.503  0.0754  0.0633  0.1633
    1W        W41642  15.241  25.584   2.995 -0.0602  0.0581  0.1030
    1W        W41643   1.863  15.567   8.718 -0.1777 -0.0863  0.0622
    1W        W41644  21.288  19.152   9.436  0.0441  0.1350 -0.0984
    1W        W41645  17.707  16.299   1.871 -0.2140  0.1272  0.1097
    1W        W41646  27.076   7.743   8.641  0.1450  0.1901  0.2896
    1W        W41647  23.139  17.253   0.292  0.1757 -0.1203  0.4336
    1W        W41648   6.910  16.861   8.638 -0.2765 -0.0400  0.2071
    1W        W41649  14.671  18.635   8.753  0.1167  0.1327 -0.0071
    1W        W41650   0.807  13.504   7.684 -0.1878 -0.2864 -0.0662
    1W        W41651  19.873  19.621   1.834 -0.2810  0.2504  0.1307
    1W        W41652   1.167   7.129   2.074 -0.2358  0.1542  0.0226
    1W        W41653  26.900  19.347   0.834  0.1106 -0.0703  0.1620
    1W        W41654   2.951   9.359   0.024  0.1963 -0.0171  0.0631
    1W        W41655  14.583  25.185   8.031 -0.1127 -0.1527  0.1670
    1W        W41656   3.277   0.505   7.511  0.3371 -0.1597  0.3515
    1W        W41657  14.536  12.221   0.767  0.2702 -0.1668 -0.1020
    1W        W41658  24.921   9.266   8.052 -0.1613 -0.1145  0.1665
    1W        W41659  21.669  21.540   2.695 -0.2622 -0.0746  0.0808
    1W        W41660  14.417  21.615   7.873  0.0066  0.2437  0.0340
    1W        W41661  12.964  14.929   7.946  0.2526  0.4177 -0.1858
    1W        W41662  27.481  26.879   8.476  0.5365  0.0439 -0.1399
    1W        W41663  22.409  10.722   6.552 -0.1786 -0.0344  0.1325
    1W        W41664  23.095  12.573   1.398  0.0416 -0.2060  0.0712
    1W        W41665  28.793  22.567   1.647  0.0194  0.0063  0.1504
    1W        W41666  28.153  18.169   8.699  0.2313  0.0267  0.3196
    1W        W41667  14.834   5.486   1.424  0.1965  0.1117  0.0510
    1W        W41668   0.800  12.430   7.837 -0.2402 -0.2172  0.1565
    1W        W41669  11.061  19.120   0.877 -0.0365  0.0051 -0.1019
    1W        W41670  15.751   8.833   3.201 -0.0547 -0.3320 -0.2649
    1W        W41671  23.890   7.752   0.185 -0.0800  0.0275 -0.1090
    1W        W41672  13.657  15.563   0.662 -0.1362 -0.2014  0.3679
    1W        W41673  11.670  18.460   0.895 -0.0139 -0.0748 -0.2010
    1W        W41674  19.000  16.999   7.609 -0.0892  0.0208 -0.1061
    1W        W41675  23.582   8.106   8.666 -0.1788  0.0610 -0.1797
    1W        W41676  17.323  11.153   7.375  0.1724 -0.1097 -0.0478
    1W        W41677  10.338   6.001   9.348 -0.1173 -0.1023  0.1483
    1W        W41678  18.518   0.364   3.437 -0.1099  0.0329  0.2015
    1W        W41679   1.058  17.200   8.009  0.2038 -0.1624  0.0359
    1W        W41680  10.987  17.952   7.854  0.1488 -0.1728  0.0445
    1W        W41681  12.655   4.687   1.460  0.1781  0.1430  0.0191
    1W        W41682  23.874   2.564   9.462 -0.3270  0.0928  0.1531
    1W        W41683   3.904   6.100   1.431  0.1390  0.0658 -0.1663
    1W        W41684  25.999  27.491   8.835  0.0494 -0.0323 -0.0315
    1W        W41685  27.453  23.883   7.312 -0.1015  0.0253 -0.0109
    1W        W41686  24.910  21.079   0.598 -0.1525 -0.0546 -0.1668
    1W        W41687  11.392  20.355   7.709 -0.0721  0.1123  0.0781
    1W        W41688  22.158  28.173   8.949  0.1572  0.0334 -0.0746
    1W        W41689  20.735  21.748   8.709  0.0720  0.0191  0.3914
    1W        W41690   0.975  15.209   6.975 -0.0759  0.0544  0.0297
    1W        W41691  14.020  15.094   1.676 -0.2188 -0.0826  0.0509
    1W        W41692   1.616  19.741   7.542 -0.0775 -0.4536 -0.2379
    1W        W41693  29.118  24.045   1.601  0.3123  0.2899  0.0429
    1W        W41694  20.251  24.139   7.870  0.0803 -0.2174  0.3196
    1W        W41695   5.272   7.684   7.833  0.0922 -0.1832  0.3081
    1W        W41696   5.585  15.823   8.305 -0.0184 -0.2246  0.3891
    1W        W41697   1.643  23.375   9.668  0.1469 -0.0805  0.1362
    1W        W41698  29.248   7.514   7.161 -0.1318  0.2647 -0.2138
    1W        W41699  11.176  16.986   0.154 -0.2985  0.1214 -0.0413
    1W        W41700  29.297  28.360   7.984  0.1581  0.2168  0.3800
    1W        W41701   0.075   0.392   9.483 -0.0498  0.1373  0.1165
    1W        W41702  28.570   1.961   1.962  0.1848  0.2252  0.1766
    1W        W41703  20.006  22.364   8.340  0.0490 -0.1844 -0.3194
    1W        W41704  16.555  26.136   7.459  0.3091  0.0871 -0.2268
    1W        W41705  18.988  14.530   7.948  0.1544 -0.2707  0.0944
    1W        W41706  12.946  17.689   7.802 -0.0636  0.0450 -0.2406
    1W        W41707  23.022  15.042   8.818 -0.0881  0.0820  0.0443
    1W        W41708  13.054   2.418   7.876 -0.3173  0.3166 -0.0702
    1W        W41709  12.702  15.753   0.616 -0.0528 -0.1489  0.0097
    1W        W41710   4.145   1.373   2.057 -0.0071  0.2881 -0.1105
    1W        W41711   3.250   9.264   7.878 -0.0545  0.1591  0.0656
    1W        W41712  28.545  22.870   8.934  0.1942 -0.1556  0.1576
    1W        W41713  16.992  14.810   0.323  0.1521  0.1163  0.0312
    1W        W41714   4.700   9.861   7.749  0.1773 -0.3041  0.3088
    1W        W41715  28.630  19.479   9.566  0.1157  0.0194  0.0615
    1W        W41716  28.445  26.413   9.090  0.0610 -0.0425  0.2362
    1W        W41717  15.910  18.441   8.851 -0.2788  0.2249  0.0575
    1W        W41718  21.592  21.787   7.331  0.1879 -0.0799  0.2561
    1W        W41719   3.151  15.863   7.664 -0.2839  0.4107  0.2899
    1W        W41720   3.111   2.348   0.522 -0.1073 -0.1811 -0.2335
    1W        W41721  28.173  13.285   7.049  0.1541  0.1128 -0.0246
    1W        W41722   8.930  15.208   6.759  0.1069  0.0551  0.0681
    1W        W41723  10.219  24.524   6.887 -0.0611  0.4728  0.0708
    1W        W41724  24.134  21.926   2.050 -0.1490 -0.1826  0.4016
    1W        W41725  26.628   9.367   7.173 -0.1283  0.0120  0.2460
    1W        W41726  12.725  19.287   7.728  0.1578  0.3393  0.0297
    1W        W41727   7.380  12.465   8.863 -0.0689  0.1667 -0.1645
    1W        W41728   9.730  20.650   1.696  0.0015 -0.0414  0.2514
    1W        W41729  12.396  26.388   2.971  0.3955 -0.1142 -0.0938
    1W        W41730  24.232   8.062   0.370 -0.0633  0.0189 -0.0764
    1W        W41731  15.008  25.802   8.598  0.0620  0.0598  0.1526
    1W        W41732  16.928  29.063   1.443 -0.0647  0.0395  0.0475
    1W        W41733  15.099  13.199   2.090 -0.2874 -0.1801  0.0297
    1W        W41734  11.818   7.127   3.324  0.1855 -0.0356  0.3002
    1W        W41735   7.797  29.283   7.688 -0.2018 -0.1500 -0.0806
    1W        W41736   3.101  23.138   6.383 -0.0027 -0.0477 -0.1241
    1W        W41737  24.088   7.245   0.718  0.0565 -0.0552 -0.2041
    1W        W41738  12.455   1.633   8.049 -0.3273 -0.2166  0.0801
    1W        W41739  18.385   0.788   7.882  0.3911  0.0165 -0.2981
    1W        W41740   2.249   9.171   9.400 -0.0568 -0.3548 -0.0870
    1W        W41741   2.911  12.552   7.387 -0.3168  0.1289  0.1183
    1W        W41742  27.712   1.546   7.746  0.0766  0.1570 -0.2777
    1W        W41743   7.744   2.863   2.352  0.2347  0.1037 -0.1990
    1W        W41744  21.573  12.029   7.509 -0.2457  0.0761  0.1262
    1W        W41745  17.723  27.826   9.649 -0.3437 -0.1852 -0.2114
    1W        W41746  15.849  17.778   2.783 -0.0630  0.2824 -0.0135
    1W        W41747   1.112  23.902   8.907  0.0419 -0.0586  0.1672
    1W        W41748  20.587  27.776   2.770 -0.2420 -0.0847  0.2888
    1W        W41749  10.811   1.458   2.892 -0.1811 -0.3529  0.3342
    1W        W41750  22.513  15.024   8.647 -0.1499 -0.2227  0.0724
    1W        W41751  24.348  21.677   0.094  0.0022 -0.1867 -0.0058
    1W        W41752  14.011  25.543   0.912 -0.0996 -0.3858 -0.1428
    1W        W41753  16.920  18.233   0.203 -0.0121  0.0482 -0.2957
    1W        W41754   6.965  27.910   9.396  0.0612 -0.0014  0.1663
    1W        W41755  13.392   7.615   2.446 -0.0133 -0.0508  0.0252
    1W        W41756   8.723  20.851   6.212 -0.1223 -0.4332  0.0488
    1W        W41757   1.079   0.175   8.794  0.3117  0.0315 -0.0726
    1W        W41758  14.345   9.147   9.081 -0.0255  0.1028 -0.1683
    1W        W41759  25.268   8.932   7.031  0.0654 -0.0302  0.0348
    1W        W41760  16.026   1.666   2.235  0.0264  0.0791  0.0578
    1W        W41761  19.501  17.404   1.017 -0.0618  0.2734 -0.0368
    1W        W41762   1.135  15.831   0.483  0.0499 -0.2189 -0.1395
    1W        W41763   7.650   1.769   2.240  0.0661  0.1380  0.1258
    1W        W41764   8.248   1.807   1.369  0.1059  0.0877  0.1503
    1W        W41765  21.030  23.093   7.908 -0.0467  0.2547  0.0864
    1W        W41766  20.112  25.268   8.071 -0.2627  0.3335  0.3759
    1W        W41767  17.644  12.555   7.985  0.1717 -0.1053 -0.1956
    1W        W41768   9.812  18.698   9.604  0.1040 -0.2610  0.0285
    1W        W41769  18.648   5.938   3.488 -0.1632 -0.0067  0.0832
    1W        W41770  16.186   3.169   9.544 -0.2754 -0.1487 -0.1059
    1W        W41771   9.994  23.590   8.725 -0.1952  0.0515 -0.0939
    1W        W41772  22.845   2.327   0.486  0.1882  0.1104 -0.3169
    1W        W41773   3.579   0.013   2.444  0.0084 -0.1176  0.3808
    1W        W41774   5.896  19.100   0.192 -0.0426  0.0990 -0.1021
    1W        W41775   8.959  10.016   2.316 -0.0085 -0.1990  0.1605
    1W        W41776  28.815   3.285   5.665  0.1789  0.1810 -0.0648
    1W        W41777  13.390  26.787   4.286 -0.2048 -0.1866 -0.0229
    1W        W41778   5.384  11.178   2.973 -0.1304 -0.0296  0.0042
    1W        W41779  26.819   0.189   3.562 -0.3326 -0.0641 -0.0179
    1W        W41780  17.471  25.991   7.570 -0.1404  0.2492  0.0461
    1W        W41781  21.643  12.048   2.679 -0.0470 -0.0505 -0.0551
    1W        W41782   3.572   9.349   6.629 -0.4190 -0.1858  0.0838
    1W        W41783   2.447   3.301   0.450  0.2264  0.2012  0.1382
    1W        W41784   0.417  14.523   1.498 -0.0548  0.1385  0.1707
    1W        W41785   2.084  21.071   1.630 -0.1683  0.0600  0.1146
    1W        W41786  17.673   0.163   8.562 -0.0867 -0.0560  0.2193
    1W        W41787  23.709   9.020   0.135  0.0111 -0.0895  0.2307
    1W        W41788   2.616   5.314   7.801  0.3510 -0.3900  0.4397
    1W        W41789  23.001   4.751   9.317 -0.0347 -0.2636  0.0597
    1W        W41790  12.247   3.491   1.919 -0.0042  0.1114  0.2776
    1W        W41791   6.428  14.721   0.934 -0.0652 -0.0976 -0.0024
    1W        W41792  11.763   9.392   0.944  0.0028 -0.0884  0.2778
    1W        W41793  10.039  10.323   0.172  0.0023  0.0819 -0.1479
    1W        W41794   5.095  18.929   1.460 -0.0100 -0.0190 -0.3354
    1W        W41795   9.113  11.814   1.595  0.2740 -0.1611  0.5725
    1W        W41796  24.397  13.453   8.686 -0.2829  0.1299 -0.2878
    1W        W41797   3.485   1.647   0.841  0.1944  0.0641  0.0880
    1W        W41798  17.435   6.339   8.032 -0.1433 -0.1246 -0.0400
    1W        W41799  18.915  19.399   7.700 -0.2102  0.1834  0.1738
    1W        W41800   9.182   8.645   2.451 -0.1991  0.1215 -0.2746
    1W        W41801   3.810  15.760   1.851  0.1881 -0.0853 -0.1223
    1W        W41802  22.091   4.272   1.761  0.1251 -0.0356 -0.1270
    1W        W41803  18.960  29.124   2.370  0.1783  0.1793 -0.0485
    1W        W41804   6.559   9.601   9.421  0.2558 -0.1474  0.0616
    1W        W41805  11.978  24.719   6.734 -0.1382 -0.0347 -0.1050
    1W        W41806  22.872  15.967   7.744  0.1704  0.0319 -0.4671
    1W        W41807   1.818  15.034   8.781  0.0097 -0.0199  0.0175
    1W        W41808  11.753  11.893   8.365 -0.0516 -0.2353  0.1313
    1W        W41809  11.489  16.066   2.551  0.0886 -0.1269 -0.0995
    1W        W41810   5.365  21.644   6.786  0.2551  0.4208 -0.0674
    1W        W41811  21.608   1.216   1.555 -0.3631 -0.1562  0.1340
    1W        W41812  18.861  19.202   2.385  0.0117  0.1428  0.0228
    1W        W41813   7.457   9.292   7.394  0.4377  0.0244  0.2202
    1W        W41814  11.781  13.932   0.982 -0.1899  0.0051 -0.1870
    1W        W41815  19.086   7.767   9.674  0.0327 -0.4414 -0.0576
    1W        W41816  19.828  28.379   3.612 -0.2075  0.0056  0.5082
    1W        W41817   5.337   9.720   1.048  0.0878 -0.1169 -0.1315
    1W        W41818  10.155  28.744   1.253 -0.2274 -0.3838  0.0534
    1W        W41819  21.263  10.571   2.222 -0.0761  0.2016 -0.0627
    1W        W41820  24.941  25.084   9.499  0.2445 -0.1129  0.3441
    1W        W41821  21.224  26.165   1.929  0.2654  0.2438 -0.3028
    1W        W41822  24.659   7.258   0.106  0.1684  0.1802  0.1018
    1W        W41823   9.937   1.727   2.725  0.1184  0.0333 -0.2136
    1W        W41824   7.370   8.034   2.330 -0.2327 -0.3050 -0.1802
    1W        W41825  10.715  21.873   7.337 -0.0673 -0.4086 -0.0325
    1W        W41826   2.367   4.352   7.727  0.0327  0.1763  0.3661
    1W        W41827   1.545   9.688   6.558 -0.2071 -0.2887 -0.1790
    1W        W41828   1.067  28.365   8.005 -0.3953  0.3326 -0.2737
    1W        W41829  15.770  29.097   1.376 -0.3235  0.1102  0.2022
    1W        W41830  20.609   5.270   1.603  0.1758  0.3971  0.3012
    1W        W41831  23.040  15.255   5.780  0.2055  0.2453 -0.0940
    1W        W41832  26.210  28.947   9.138 -0.0565 -0.1730  0.0453
    1W        W41833  26.361  23.702   1.735 -0.0676  0.1822  0.0248
    1W        W41834   6.008   4.491   3.279 -0.0080  0.4019 -0.0738
    1W        W41835  28.854  12.550   0.310  0.0237 -0.0458 -0.0862
    1W        W41836  24.292  21.839   1.361 -0.5291  0.0316  0.1257
    1W        W41837  28.045   6.646   6.809  0.1672  0.1006  0.0657
    1W        W41838   1.082   5.217   7.688 -0.0462 -0.1853 -0.0769
    1W        W41839   0.914  27.915   7.729 -0.2224 -0.0671  0.1890
    1W        W41840  21.031   9.024   1.877  0.3698 -0.0034 -0.1247
    1W        W41841  24.207  20.739   7.475  0.1208  0.1036  0.0457
    1W        W41842   9.375  12.687   1.619 -0.0405 -0.2502 -0.1728
    1W        W41843  20.174   8.394   2.154 -0.0632  0.0101  0.3668
    1W        W41844  16.946  27.621   2.985  0.3676  0.0811  0.1271
    1W        W41845   3.546  24.949   1.543  0.0162 -0.1345  0.0022
    1W        W41846   9.396   8.160   8.829 -0.1802  0.0687 -0.3038
    1W        W41847   0.732  23.360   7.124  0.0798  0.1451 -0.1179
    1W        W41848  23.056  27.372   1.416  0.0564 -0.2026 -0.1670
    1W        W41849  13.252  12.520   2.685 -0.1245 -0.0583  0.0031
    1W        W41850  28.778  22.950   2.097 -0.0263 -0.2450  0.1091
    1W        W41851  21.531  24.692   8.030 -0.1456  0.0033  0.1877
    1W        W41852  14.187  20.153   8.177 -0.0457  0.3124  0.1973
    1W        W41853   3.800  14.004   2.260  0.1137 -0.2069 -0.0841
    1W        W41854   9.669   1.560   3.115  0.3131  0.1401  0.2189
    1W        W41855   0.109  19.902   5.557 -0.1175  0.1237  0.1534
    1W        W41856  12.006  19.103   6.797 -0.0628  0.1299 -0.0220
    1W        W41857   5.633   4.197   8.753  0.3785 -0.0836 -0.0207
    1W        W41858   9.529  28.504   0.087 -0.3292  0.0295  0.1193
    1W        W41859  24.807  18.892   7.580 -0.0444  0.1248 -0.0091
    1W        W41860  12.330  25.157   7.368 -0.0168  0.3233 -0.0233
    1W        W41861  13.581   6.109   3.541 -0.1250  0.0375  0.1520
    1W        W41862  15.108  10.269   8.097 -0.0726 -0.2081  0.0716
    1W        W41863   6.919   8.003   9.382 -0.0264 -0.1439  0.1133
    1W        W41864  20.720  25.097   1.111  0.1820 -0.1255  0.4796
    1W        W41865  24.939  12.736   6.760 -0.0702  0.3376 -0.2436
    1W        W41866  19.813   9.920   7.363 -0.0708  0.0893 -0.3086
    1W        W41867   5.749   3.720   9.472  0.2605 -0.1310  0.1619
    1W        W41868  21.571   0.264   1.777  0.2018  0.0829 -0.3002
    1W        W41869  25.487  28.613   6.025 -0.0748  0.0944 -0.1493
    1W        W41870  13.302  10.420   8.812  0.4049  0.2104 -0.2432
    1W        W41871  21.945  17.653   1.490  0.0562 -0.1108 -0.2542
    1W        W41872  27.757   2.721   2.241 -0.0035 -0.0010  0.1098
    1W        W41873  17.150  20.845   2.713 -0.0542 -0.0299 -0.0189
    1W        W41874   9.505  13.118   7.513 -0.2549  0.0220  0.0482
    1W        W41875   4.747   9.157   9.223 -0.1934 -0.6353 -0.0213
    1W        W41876   9.330   3.655   2.658 -0.0500 -0.0633 -0.0631
    1W        W41877  15.519  24.831   7.174 -0.0870 -0.1459 -0.1582
    1W        W41878  28.071  23.250   0.697  0.0767 -0.1159 -0.0313
    1W        W41879   0.178  10.042   1.076  0.1620  0.1383  0.0634
    1W        W41880   5.147  11.504   9.691 -0.1480  0.0444  0.3314
    1W        W41881  20.659  15.396   2.004 -0.2048  0.2509 -0.0039
    1W        W41882  17.808  22.255   0.593 -0.1193 -0.0350  0.2273
    1W        W41883  17.102  23.033   8.051  0.0948 -0.0439  0.1227
    1W        W41884   5.786  13.868   8.632 -0.4697  0.2731 -0.0297
    1W        W41885  27.144  25.914   8.701 -0.2945 -0.1160 -0.1027
    1W        W41886  23.134   3.036   1.996  0.1289  0.0548 -0.0409
    1W        W41887  14.516  27.068   9.589 -0.1786  0.0806  0.1052
    1W        W41888  15.129  10.833   7.764  0.1047  0.1751  0.1538
    1W        W41889  28.264  25.258   3.265  0.2860 -0.2020  0.3526
    1W        W41890  14.334   7.156   0.235 -0.1379 -0.0596  0.3532
    1W        W41891  22.640   0.929   5.994  0.2184 -0.1707  0.0178
    1W        W41892   7.343  29.326   0.714 -0.1592  0.1396  0.0112
    1W        W41893  18.048   2.097   9.652 -0.0712 -0.1880 -0.1839
    1W        W41894   3.017  19.857   1.273  0.1552 -0.1279 -0.2306
    1W        W41895  17.972   0.670   0.544 -0.0364  0.1770 -0.1407
    1W        W41896  16.007  29.210   8.154  0.1653  0.0011 -0.0770
    1W        W41897   4.259  20.686   7.745 -0.1199 -0.1052 -0.0422
    1W        W41898   1.841  11.346   6.496 -0.0011 -0.2540 -0.1635
    1W        W41899  13.307  16.382   8.867 -0.2308 -0.1626  0.0816
    1W        W41900  11.859   9.905   1.421 -0.0773  0.0895  0.0063
    1W        W41901   3.941   5.757   5.918  0.0915 -0.1447 -0.0916
    1W        W41902  21.385   1.335   8.626  0.0855 -0.1270  0.0732
    1W        W41903   9.518   2.077   9.255  0.0933 -0.0351  0.0754
    1W        W41904  11.353  19.284   9.299  0.0211  0.2337  0.0137
    1W        W41905  21.147   0.742   5.820  0.0320 -0.0525  0.2745
    1W        W41906  19.128   3.870   7.087 -0.0654 -0.2772 -0.1837
    1W        W41907  29.014   8.205   6.887  0.0788 -0.2317 -0.0880
    1W        W41908   6.319  23.283   9.633 -0.1257 -0.3072  0.1164
    1W        W41909   1.223   6.071   7.422 -0.0003 -0.3597 -0.2489
    1W        W41910  18.810  21.351   8.208  0.2652 -0.4283 -0.0845
    1W        W41911  22.643   0.275   7.037  0.3805 -0.0263 -0.0895
    1W        W41912  26.778   0.685   8.227  0.2022 -0.3358 -0.2472
    1W        W41913  10.960  11.691   7.956  0.1023  0.1329 -0.2362
    1W        W41914   2.389   9.402   6.537  0.4090  0.1088 -0.0580
    1W        W41915  10.750   3.710   9.002 -0.0967 -0.4054  0.0671
    1W        W41916  26.773   0.789   0.143 -0.1478 -0.0366 -0.1749
    1W        W41917   8.338  20.746   6.464  0.0918 -0.0943 -0.1755
    1W        W41918   0.149  23.294   0.811  0.0967 -0.0037  0.0156
    1W        W41919  13.814  10.303   9.032 -0.1607  0.0288 -0.3382
    1W        W41920   8.579  14.769   7.741 -0.0944 -0.0632  0.2401
    1W        W41921  20.221   5.317   7.768 -0.0673 -0.1562 -0.1360
    1W        W41922  27.672  26.412   1.822 -0.0314  0.1117  0.1798
    1W        W41923  17.899  11.942   1.424 -0.0130 -0.2413 -0.0597
    1W        W41924   0.307  22.544   6.918 -0.0030  0.0967 -0.1403
    1W        W41925   8.233   4.384   0.585 -0.1055  0.1083  0.0901
    1W        W41926  19.847  28.378   7.768 -0.0858 -0.2535  0.2991
    1W        W41927   4.564  15.415   1.049 -0.3585 -0.0190 -0.1284
    1W        W41928  16.137   6.125   1.563 -0.1937 -0.0807  0.4447
    1W        W41929  24.732   3.384   8.237 -0.1034 -0.3893  0.0472
    1W        W41930  23.187   4.746   2.088  0.0158  0.4456  0.0749
    1W        W41931  27.279  15.095   8.610 -0.0341  0.0927 -0.1066
    1W        W41932   4.428   9.150   0.926 -0.1344  0.0720  0.1938
    1W        W41933   7.291   5.566   9.159 -0.1027  0.0070  0.0024
    1W        W41934  19.994   8.506   7.336 -0.1435  0.1331 -0.0544
    1W        W41935   3.614   8.387   6.670 -0.0262  0.2450  0.1074
    1W        W41936  19.422  26.416   8.722 -0.1688 -0.0002  0.3391
    1W        W41937  13.067  21.493   7.056 -0.0868  0.0866  0.0957
    1W        W41938   8.688  14.947   9.170  0.4195 -0.3608 -0.0214
    1W        W41939  28.074   4.635   0.570 -0.1262  0.1540  0.1768
    1W        W41940   0.803  27.173   8.313  0.3900  0.0090  0.1584
    1W        W41941  26.645  24.932   7.288 -0.2116 -0.0454 -0.2133
    1W        W41942  23.388  11.452   9.656  0.0601  0.0925 -0.0083
    1W        W41943   3.832   5.434   0.113 -0.3314 -0.0506  0.1935
    1W        W41944   3.589  24.943   0.656  0.2581  0.0745 -0.0484
    1W        W41945  19.184  10.264   0.667  0.1611 -0.1286  0.0017
    1W        W41946   3.323  25.910   9.257  0.1274  0.2738 -0.2704
    1W        W41947  26.625  24.040   2.535  0.1254 -0.0362 -0.0391
    1W        W41948   0.342   2.172   1.302  0.0680  0.0929  0.1904
    1W        W41949  12.896  13.409   1.693 -0.0751 -0.1624 -0.0271
    1W        W41950  19.263  26.435   2.372 -0.1038 -0.0458  0.0323
    1W        W41951  14.866   8.402   2.588  0.2833  0.1984 -0.2280
    1W        W41952  26.794   5.652   8.046  0.1143 -0.3637 -0.2737
    1W        W41953   3.794  26.799   8.939  0.1375  0.0312  0.1473
    1W        W41954   5.639  25.720   8.413  0.2464  0.0540 -0.0193
    1W        W41955  26.207   9.739   8.295 -0.1156  0.3103 -0.1482
    1W        W41956  24.416   9.814   1.139  0.1910 -0.1275  0.1589
    1W        W41957   3.857  10.083   6.121 -0.0407  0.1115 -0.0119
    1W        W41958  20.911  28.168   7.243  0.1591 -0.1057 -0.1718
    1W        W41959  23.512  15.372   1.280 -0.0590 -0.1379  0.0264
    1W        W41960   4.957  11.254   7.038  0.2219 -0.1640 -0.0213
    1W        W41961  14.351  28.071   3.334  0.2512  0.0152 -0.3472
    1W        W41962  22.826  13.352   1.765 -0.3990 -0.1074  0.1400
    1W        W41963   3.998  20.474   9.248 -0.0305  0.1575  0.4593
    1W        W41964  14.677  22.144   9.021  0.2994  0.1286 -0.0173
    1W        W41965  18.146  14.036   0.077  0.1397  0.1157  0.2697
    1W        W41966  14.698  19.262   8.778  0.3263  0.0416  0.0265
    1W        W41967  15.079  22.668   0.076  0.3003 -0.0197 -0.2448
    1W        W41968   9.702  25.902   9.423  0.3364 -0.0964 -0.2198
    1W        W41969   4.885   0.822   6.844 -0.1949 -0.0016 -0.2621
    1W        W41970  11.685   9.720   0.469 -0.0722  0.1998  0.3195
    1W        W41971  15.938   2.894   0.262 -0.0978  0.3744 -0.2681
    1W        W41972  22.659  13.584   7.410  0.3795  0.2007 -0.0262
    1W        W41973  22.038   8.794   2.852  0.2536 -0.0294 -0.2270
    1W        W41974  23.572  25.814   2.618 -0.3001 -0.3041  0.0495
    1W        W41975  25.341  14.137   0.349  0.1407  0.1382 -0.0891
    1W        W41976  24.283   6.975   9.595 -0.0499 -0.1424  0.1743
    1W        W41977   5.897  28.609   0.665  0.0507 -0.1597  0.1866
    1W        W41978  12.747  23.087   7.669 -0.2700 -0.0370  0.0932
    1W        W41979  22.207   8.649   1.234  0.4803 -0.1402 -0.2744
    1W        W41980  14.156  28.873   8.424  0.1995  0.0200 -0.1550
    1W        W41981  19.471  14.303   1.162  0.0199  0.2683 -0.1538
    1W        W41982   6.969  10.251   0.911 -0.0467  0.0296  0.2034
    1W        W41983  22.655   8.638   0.853 -0.1182 -0.1368  0.2003
    1W        W41984  27.432  28.810   9.264  0.1358 -0.2859 -0.2281
    1W        W41985  27.481   2.819   1.679 -0.3409  0.1567 -0.2807
    1W        W41986   6.255   6.010   1.942 -0.0951 -0.2627  0.1976
    1W        W41987  27.621   0.483   0.965  0.1361  0.2012  0.1441
    1W        W41988  28.411  25.260   9.286  0.0293 -0.3219  0.2067
    1W        W41989  25.384  10.818   1.398  0.3123  0.4315 -0.1123
    1W        W41990  24.337  14.018   7.050 -0.2032  0.0286  0.1618
    1W        W41991  15.410  10.037   0.072  0.2695 -0.0413  0.0160
    1W        W41992  20.796  29.043   6.934 -0.1330  0.2745 -0.1545
    1W        W41993  19.229   9.801   0.486 -0.4446 -0.1445  0.3207
    1W        W41994  18.611  25.439   2.068  0.0698  0.3868  0.0623
    1W        W41995  10.992  28.073   9.427  0.0831  0.1105 -0.2032
    1W        W41996   5.916  21.755   0.380 -0.2828  0.0869  0.0291
    1W        W41997  17.949   9.416   8.731  0.1748 -0.4215  0.2260
    1W        W41998   9.083  21.709   2.046  0.1875 -0.3871 -0.1279
    1W        W41999   5.918  16.544   0.647 -0.0967 -0.1465 -0.1926
    1W        W42000  25.305   3.564   8.969 -0.0077  0.1136 -0.1668
    1W        W42001  24.412  27.219   1.841  0.3532 -0.3011  0.0738
    1W        W42002  28.863   6.822   6.588  0.0367 -0.0062  0.1515
    1W        W42003   9.008  25.224   8.779 -0.2869 -0.1169  0.2288
    1W        W42004   0.481   7.627   2.299  0.0867 -0.1398  0.0172
    1W        W42005  22.739  15.072   2.242  0.0190 -0.0721  0.1981
    1W        W42006  16.305  18.614   0.426  0.1879  0.2411  0.3067
    1W        W42007  27.391   2.002   8.486  0.0340  0.5227  0.1815
    1W        W42008  21.003  24.725   7.009 -0.3583 -0.0497  0.0163
    1W        W42009  19.118  13.534   9.429 -0.1371 -0.0140 -0.1347
    1W        W42010  24.783   8.790   0.188 -0.2829  0.0016 -0.1260
    1W        W42011  19.680  10.890   3.115 -0.1224  0.2790 -0.0928
    1W        W42012  26.760  27.180   9.457 -0.2140 -0.2823 -0.2677
    1W        W42013  15.546  25.266   7.937 -0.0332  0.2517 -0.0709
    1W        W42014  10.862  15.967   1.908 -0.0995 -0.0911 -0.1697
    1W        W42015   0.416   0.877   9.341  0.0122  0.1367  0.1801
    1W        W42016  26.101  28.448   8.885  0.2875 -0.2414  0.0744
    1W        W42017   0.604  12.988   2.150  0.0801 -0.0366  0.0145
    1W        W42018  12.079  28.237   7.513  0.1131 -0.3309  0.1363
    1W        W42019  15.900  20.378   9.611  0.0481 -0.0690 -0.0174
    1W        W42020   7.884   3.413   1.682  0.2642  0.2728  0.1813
    1W        W42021  23.884  20.584   1.693 -0.2357  0.4353 -0.2763
    1W        W42022  13.733  11.934   0.510 -0.1600 -0.0961  0.0782
    1W        W42023  22.352  25.377   7.686 -0.0030 -0.1730  0.0638
    1W        W42024   5.809   1.508   8.111  0.0298 -0.1816  0.0567
    1W        W42025  13.352   5.293   9.077 -0.0555  0.0034 -0.2051
    1W        W42026  22.621  15.553   7.576 -0.0085 -0.1808  0.0526
    1W        W42027  25.974   9.863   0.769 -0.0086  0.0442  0.2843
    1W        W42028   9.474  17.171   7.782 -0.0170 -0.0359 -0.0522
    1W        W42029  22.577   6.219   9.122  0.1003  0.0342  0.3936
    1W        W42030   0.554  18.149   5.633  0.0713 -0.1791 -0.0955
    1W        W42031   4.739   0.504   8.788 -0.1667  0.5646  0.1183
    1W        W42032  24.934  25.672   2.926 -0.2330 -0.0149 -0.1942
    1W        W42033   5.123  28.832   8.747 -0.0052 -0.0952  0.1540
    1W        W42034  25.815   1.023   2.588 -0.3676 -0.2383 -0.3166
    1W        W42035  27.940  19.067   2.850 -0.2173  0.0743  0.6313
    1W        W42036   5.097  17.162   6.665  0.2202  0.0943  0.2287
    1W        W42037  24.839   2.093   7.463 -0.1081  0.0520  0.1474
    1W        W42038  25.657  27.271   6.985 -0.3021  0.0724  0.0870
    1W        W42039  13.295  20.750   2.641 -0.1912 -0.4291  0.0534
    1W        W42040   4.458   6.241   1.274 -0.0259 -0.0067 -0.3395
    1W        W42041  26.486   9.140   7.621 -0.1289 -0.0844 -0.0883
    1W        W42042   9.521   2.466   0.605 -0.0097 -0.0815  0.2164
    1W        W42043  12.407   7.678   3.084  0.1558 -0.4458  0.0716
    1W        W42044   1.142  18.072   6.221 -0.2243  0.1821 -0.1935
    1W        W42045  22.010   4.226   2.298 -0.1210 -0.0545 -0.0147
    1W        W42046  21.206  19.908   7.695 -0.3135  0.2826  0.0296
    1W        W42047  25.212  14.902   5.918 -0.0442  0.1375  0.2025
    1W        W42048  27.693   2.822   0.446 -0.0509  0.0587 -0.0159
    1W        W42049   4.074   2.245   8.425 -0.1268 -0.1457  0.0218
    1W        W42050  24.791  20.737   1.014 -0.1718 -0.1233 -0.1657
    1W        W42051  23.200  28.387   7.610 -0.0200  0.1832 -0.2828
    1W        W42052   2.182  18.424   2.991  0.0231  0.5924  0.1247
    1W        W42053  24.653  17.107   1.678 -0.1031 -0.0211 -0.1112
    1W        W42054   6.027   4.378   9.001 -0.2969  0.0864  0.2854
    1W        W42055  21.977  15.409   1.219  0.1753 -0.1032 -0.0103
    1W        W42056   2.391  23.364   6.965 -0.2325  0.0524  0.2637
    1W        W42057  20.909  19.475   8.419  0.1558  0.0962 -0.0938
    1W        W42058  20.426   9.620   1.378  0.2093  0.1609  0.4295
    1W        W42059  27.287  20.853   7.362  0.1251  0.1312 -0.2517
    1W        W42060  24.609  11.907   9.644  0.3730 -0.0049  0.2820
    1W        W42061  13.729  24.015   0.742 -0.1217 -0.0317 -0.1074
    1W        W42062  19.172  26.450   7.692 -0.0416  0.0329  0.0483
    1W        W42063  27.452  20.578   1.203  0.2622  0.0485  0.0108
    1W        W42064   2.264  20.418   6.746 -0.0129 -0.3872  0.1872
    1W        W42065  14.139   1.181   2.129  0.4316  0.1431  0.1800
    1W        W42066   1.414  11.963   2.752 -0.0492  0.0648 -0.2824
    1W        W42067  13.129   8.088   9.435 -0.0016  0.1428 -0.0618
    1W        W42068  22.109   3.922   0.094  0.1087  0.1022  0.1878
    1W        W42069   7.121  15.588   1.542 -0.1486 -0.1203  0.0019
    1W        W42070  21.760  18.787   0.337 -0.1350 -0.3888  0.3618
    1W        W42071  24.774  25.042   1.420 -0.2468 -0.1836  0.0955
    1W        W42072   0.562  29.271   1.393  0.2643  0.1390 -0.1615
    1W        W42073  17.698  12.704   1.699 -0.1903 -0.0706 -0.0053
    1W        W42074  25.915  23.394   1.008  0.0273  0.0177  0.2030
    1W        W42075   3.180  22.837   7.817 -0.0589  0.0211  0.0603
    1W        W42076   2.151   8.994   1.584 -0.0714  0.1966 -0.0367
    1W        W42077  16.822   0.391   8.182 -0.1986  0.0417  0.0413
    1W        W42078   2.886  25.346   8.854 -0.2232 -0.4359  0.0960
    1W        W42079  23.881  25.268   1.311  0.1230 -0.1088  0.2036
    1W        W42080   1.788  27.807   7.036 -0.0030  0.2271  0.3694
    1W        W42081   7.400   8.166   0.056 -0.1073 -0.0361  0.1817
    1W        W42082  24.433  26.245   7.767 -0.2824  0.0782  0.0348
    1W        W42083  12.595  16.806   2.442  0.0461 -0.2178 -0.1223
    1W        W42084  16.779   3.676   2.601  0.1257  0.1965  0.1028
    1W        W42085  22.051  27.948   1.978 -0.0441  0.1120 -0.2577
    1W        W42086  11.370  27.499   0.919 -0.1512  0.0813 -0.1539
    1W        W42087  28.810  16.139   1.917  0.0395  0.2486  0.0709
    1W        W42088   3.881   1.883   1.106  0.0534  0.1192  0.0900
    1W        W42089  11.537  16.877   7.513 -0.1910 -0.3092 -0.0181
    1W        W42090  28.508  23.617   8.822  0.0990 -0.0968 -0.2106
    1W        W42091   2.932  28.530   0.673  0.0502  0.2869  0.2521
    1W        W42092  21.209   8.338   2.568 -0.2287  0.0921  0.1976
    1W        W42093  19.247   9.948   2.344 -0.1462  0.1877  0.2315
    1W        W42094   1.608  17.761   7.218 -0.1505 -0.0475  0.0219
    1W        W42095  20.008   3.914   2.197 -0.1692 -0.2539 -0.3396
    1W        W42096   8.608  12.428   9.659 -0.0122 -0.0446  0.1330
    1W        W42097  27.985   8.101   2.954  0.0374  0.3734 -0.0031
    1W        W42098  13.329  19.673   0.302 -0.1314 -0.1306 -0.0453
    1W        W42099  20.628  12.454   0.914  0.0641 -0.1268  0.1163
    1W        W42100  26.487  25.701   1.729  0.1294  0.1846 -0.1092
    1W        W42101  23.311   8.690   8.116 -0.2478 -0.0454  0.0097
    1W        W42102  12.040   9.811   0.874 -0.1230 -0.1102  0.1461
    1W        W42103  24.900  22.264   7.813  0.0840  0.3409 -0.0415
    1W        W42104   1.742  12.555   1.618  0.0562  0.0291  0.0281
    1W        W42105  16.567   0.918   1.021  0.1599  0.0615 -0.2801
    1W        W42106  28.293  25.812   0.614  0.1755  0.0961  0.2783
    1W        W42107  18.900  26.087   7.832  0.0343  0.1067  0.1023
    1W        W42108  12.745  24.991   0.565  0.0044 -0.0154 -0.2000
    1W        W42109   9.189   0.802   1.699  0.2909 -0.2623 -0.0297
    1W        W42110   1.330  24.067   8.101 -0.0043 -0.2700  0.0605
    1W        W42111   5.012   9.587   1.426 -0.0803  0.2227 -0.1268
    1W        W42112  26.356  23.783   6.418  0.0190 -0.0340  0.0578
    1W        W42113   1.450  21.242   0.362  0.3247  0.1698  0.2509
    1W        W42114   6.452  23.037   0.414 -0.0937 -0.0330  0.2246
    1W        W42115   8.871  11.857   6.852  0.1588 -0.1333  0.0085
    1W        W42116   2.036   2.506   2.028 -0.3527 -0.2383 -0.1912
    1W        W42117  14.596  22.922   8.322 -0.2279  0.2099 -0.0119
    1W        W42118  22.045  19.396   2.153 -0.1673  0.1651  0.3454
    1W        W42119  24.993  21.355   1.454 -0.0089 -0.2230  0.0231
    1W        W42120  18.479  18.574   1.212 -0.0283 -0.3506 -0.0931
    1W        W42121   4.676  17.804   9.114 -0.1134 -0.1092 -0.2387
    1W        W42122  19.869  29.300   1.192 -0.1126 -0.2953 -0.0909
    1W        W42123   9.200   8.269   8.351 -0.1507 -0.2424 -0.1779
    1W        W42124   9.613  19.519   0.036  0.1603  0.0024 -0.0811
    1W        W42125   6.766  20.185   9.552  0.1065 -0.1156 -0.0334
    1W        W42126  20.317   0.916   1.231  0.0942  0.1157  0.1958
    1W        W42127   6.237   4.807   7.152  0.1040  0.4670 -0.1463
    1W        W42128  23.509   4.557   0.175 -0.2236  0.0181 -0.0235
    1W        W42129  15.851  28.100   2.989  0.1431 -0.0319  0.0681
    1W        W42130   9.281   8.566   0.990  0.0805 -0.4700  0.2251
    1W        W42131   7.100  27.901   8.072  0.2575 -0.2578  0.1086
    1W        W42132   0.740   5.279   2.063 -0.0998 -0.1096  0.1682
    1W        W42133  23.219  28.560   1.482 -0.0704  0.0153  0.1357
    1W        W42134  25.172  19.291   6.821 -0.1857  0.1845 -0.0599
    1W        W42135   5.631   4.258   9.296  0.0022  0.3495  0.2214
    1W        W42136  28.502   1.512   2.720 -0.1834  0.7715 -0.0034
    1W        W42137  15.184  28.994   8.416 -0.3414 -0.0656  0.0025
    1W        W42138   8.091  18.614   8.130 -0.0997 -0.2010  0.1745
    1W        W42139  10.780   7.926   0.591 -0.1171  0.0362 -0.2182
    1W        W42140  17.638  23.823   8.420  0.1941  0.0370 -0.3668
    1W        W42141  22.932   0.159   7.775  0.5751  0.0871  0.0295
    1W        W42142  15.347   8.981   7.172 -0.0230 -0.1915 -0.3585
    1W        W42143  13.529  28.127   9.419  0.2985  0.2730  0.3389
    1W        W42144   7.283   7.821   0.616 -0.1174 -0.1853  0.3161
    1W        W42145  11.165   8.983   9.316 -0.3705 -0.2147  0.2176
    1W        W42146  24.941  14.466   0.142  0.0660 -0.0847 -0.1144
    1W        W42147  18.607   5.614   1.669  0.2714 -0.3396 -0.0987
    1W        W42148  23.398  13.495   1.763  0.2139  0.1329  0.0529
    1W        W42149   0.803  13.320   8.361  0.3200  0.0356 -0.0168
    1W        W42150  26.080   6.365   7.608 -0.0455 -0.0129  0.0371
    1W        W42151  12.918   0.989   7.578 -0.0857 -0.2650 -0.0200
    1W        W42152  23.989  11.756   7.788  0.0707  0.2663 -0.0824
    1W        W42153  16.801  10.307   7.541 -0.2551 -0.2736  0.2628
    1W        W42154  26.688  16.854   1.367  0.0482  0.0835  0.0977
    1W        W42155   1.556  12.201   8.585 -0.0921 -0.1164 -0.1080
    1W        W42156   8.631  26.925   1.960  0.0345  0.0017 -0.0348
    1W        W42157   4.244  11.294   7.383 -0.2626 -0.1036 -0.2034
    1W        W42158   4.869   7.538   3.330  0.3262 -0.1319 -0.3913
    1W        W42159  24.050  27.317   6.694 -0.0033  0.0463 -0.2582
    1W        W42160   2.274   5.001   6.177 -0.2663 -0.0330 -0.0785
    1W        W42161   2.637  24.491   2.316  0.0348  0.0934  0.3168
    1W        W42162  15.420  19.368   0.909  0.1146 -0.3101  0.2841
    1W        W42163  20.331   7.026   9.242 -0.1317  0.1695 -0.1365
    1W        W42164  21.144  14.529   1.904  0.2153  0.0977  0.0428
    1W        W42165  18.770   6.878   7.900 -0.1610  0.0180 -0.2237
    1W        W42166  21.867  18.359   1.796 -0.1479  0.1049  0.1874
    1W        W42167  14.290   3.595   8.822  0.2886  0.0040 -0.0588
    1W        W42168  18.512  18.525   2.696 -0.1249  0.1475  0.0248
    1W        W42169  12.608  19.503   9.428  0.1059  0.1250  0.1842
    1W        W42170   0.284  24.391   1.508 -0.1501 -0.3313 -0.2957
    1W        W42171  11.768   8.866   7.490 -0.0398 -0.0585  0.0306
    1W        W42172  26.347  27.822   1.422  0.4295  0.2301  0.0968
    1W        W42173  26.598  15.122   9.666 -0.0434 -0.0920  0.0021
    1W        W42174  13.101   3.732   0.059  0.1584  0.1218  0.4514
    1W        W42175   0.610   1.722   2.630  0.0741  0.0456 -0.0634
    1W        W42176  21.884   3.953   1.136 -0.0297  0.2413 -0.2863
    1W        W42177  22.702  15.419   8.947 -0.0801 -0.0699 -0.0332
    1W        W42178  22.946  12.091   1.214 -0.1695 -0.0979  0.0713
    1W        W42179  29.178  22.442   2.385 -0.1307 -0.1044 -0.0773
    1W        W42180  15.249  16.241   0.367 -0.2522 -0.0296  0.1008
    1W        W42181  19.322  15.769   1.904 -0.0536 -0.2939  0.0789
    1W        W42182   8.131  12.350   6.906  0.3001  0.3287  0.0430
    1W        W42183  26.493   5.077   0.035  0.2572  0.2497 -0.1917
    1W        W42184   2.236  28.238   2.915  0.0546 -0.0679  0.1574
    1W        W42185   9.321  23.126   7.117 -0.1906  0.1238  0.3054
    1W        W42186   9.290   2.699   0.277  0.1872  0.2226  0.0832
    1W        W42187  16.884  19.156   2.958  0.2906 -0.0383 -0.3648
    1W        W42188   8.724  19.385   9.647 -0.0448 -0.2569 -0.2508
    1W        W42189   6.881  25.256   8.885 -0.0474 -0.1405  0.2997
    1W        W42190   6.228  20.128   0.765  0.0341 -0.1337 -0.1145
    1W        W42191   1.954   1.550   3.692 -0.0501  0.3793  0.2896
    1W        W42192  24.073   3.966   1.771  0.1527  0.4141  0.0292
    1W        W42193  26.441   3.810   0.798 -0.1245  0.0741 -0.3621
    1W        W42194  23.708  19.226   0.649 -0.0328  0.2242 -0.0824
    1W        W42195  15.562  28.315   0.152  0.1964  0.1082 -0.0055
    1W        W42196  24.493   2.914   8.403 -0.0766 -0.0019  0.1189
    1W        W42197   5.403  10.472   6.742  0.1378  0.3575 -0.1528
    1W        W42198  18.884  24.361   0.871 -0.0333  0.0191  0.0182
    1W        W42199   0.408   8.486   1.227  0.0462  0.0018 -0.1958
    1W        W42200  17.493  26.774   0.453  0.2576  0.1239 -0.0404
    1W        W42201   1.200  26.800   1.246  0.1065  0.0457 -0.3528
    1W        W42202  19.684  28.309   3.149 -0.0324 -0.1870 -0.1889
    1W        W42203   4.041   3.562   7.670  0.1656 -0.0856  0.1140
    1W        W42204  28.798  16.688   6.554  0.0879  0.0101 -0.1630
    1W        W42205  18.637   0.024   8.355 -0.0584  0.0790  0.1973
    1W        W42206  13.258   9.336   2.739 -0.0232  0.0153 -0.1621
    1W        W42207  19.318  13.679   1.958 -0.2081 -0.0302  0.2378
    1W        W42208  29.319   9.683   2.961 -0.1287  0.0989  0.0131
    1W        W42209   9.547   2.533   7.496  0.1429 -0.0468 -0.2115
    1W        W42210  15.110   7.537   9.372 -0.0539  0.1018  0.0850
    1W        W42211  20.106  17.770   7.815 -0.1162 -0.2118  0.0842
    1W        W42212   1.802  21.982   1.381  0.0720  0.4640 -0.3386
    1W        W42213   4.418  20.799   9.569  0.0753 -0.1470  0.0783
    1W        W42214  22.442   7.781   1.365 -0.0742  0.0556 -0.0829
    1W        W42215  22.728   3.677   1.605  0.2514 -0.1043 -0.0077
    1W        W42216  19.634  10.609   7.907  0.1501 -0.1487 -0.0936
    1W        W42217  24.374  13.836   0.666 -0.1874 -0.2237  0.0937
    1W        W42218   9.932  25.508   7.085 -0.2758  0.1583  0.0799
    1W        W42219   4.053  13.122   8.576 -0.0015 -0.0360  0.1423
    1W        W42220  26.783  13.900   0.247 -0.0106  0.0831  0.2662
    1W        W42221  23.506  17.817   8.550  0.0665  0.0929 -0.0221
    1W        W42222   3.235   7.359   8.966 -0.2473  0.1938  0.0247
    1W        W42223  28.103  24.920   8.840 -0.1349  0.3652  0.0330
    1W        W42224  13.623   7.928   1.739 -0.1214 -0.1069  0.3525
    1W        W42225  21.350   4.746   7.830 -0.1315  0.0295  0.1175
    1W        W42226   5.115  29.347   0.819 -0.4508  0.0156 -0.3866
    1W        W42227   3.596   1.020   0.400  0.3783  0.1811 -0.0980
    1W        W42228  22.235  25.862   8.117  0.0078 -0.0098  0.3830
    1W        W42229  28.790  10.812   2.369 -0.2681  0.1434 -0.1264
    1W        W42230   1.788  21.451   1.483  0.1834  0.0819 -0.2100
    1W        W42231  16.595  11.122   1.736  0.1911 -0.1747  0.0768
    1W        W42232  21.861  19.172   8.353 -0.0911  0.1792  0.2774
    1W        W42233  25.697   7.249   8.439  0.0877 -0.3457  0.1559
    1W        W42234   9.106  18.379   7.430  0.1845  0.0100 -0.0848
    1W        W42235  25.800  15.282   8.025 -0.1700 -0.0399 -0.2715
    1W        W42236  12.688  17.183   0.326  0.1251  0.1595  0.4175
    1W        W42237   2.552  21.387   0.143  0.2448  0.1221  0.0460
    1W        W42238   9.253  20.967   8.566 -0.2332 -0.0647  0.2925
    1W        W42239  16.463  14.012   8.583  0.2179 -0.2315 -0.1184
    1W        W42240  18.635   6.365   8.087 -0.1296  0.0121  0.0948
    1W        W42241   5.338  28.961   6.692  0.1524 -0.0256 -0.0565
    1W        W42242  12.595  19.847   7.029 -0.2627 -0.3211 -0.1745
    1W        W42243  27.695  25.746   8.691 -0.0345  0.0623  0.1146
    1W        W42244  10.839  12.113   0.304  0.2030 -0.0562  0.4196
    1W        W42245  12.423  14.442   1.908 -0.0114  0.1266 -0.3971
    1W        W42246  23.825  13.344   8.455  0.0044  0.1298 -0.3108
    1W        W42247  24.233   5.105   1.744 -0.0075  0.0646 -0.0806
    1W        W42248  17.733  24.743   8.927  0.2359 -0.0498 -0.1571
    1W        W42249  11.392   7.198   1.162 -0.0449 -0.1686  0.1535
    1W        W42250   6.443  29.274   0.730  0.0773  0.0114 -0.1317
    1W        W42251  20.029  21.124   1.912  0.1296 -0.2281  0.2300
    1W        W42252  15.402  17.203   9.233  0.1238  0.1986 -0.0072
    1W        W42253  28.094   6.780   6.359 -0.1139  0.0502 -0.0300
    1W        W42254   6.806   7.682   0.468 -0.0217 -0.0496  0.0409
    1W        W42255  24.240   2.459   0.488  0.0845 -0.0018 -0.0178
    1W        W42256  13.311   0.633   8.363 -0.1861  0.1612  0.0443
    1W        W42257   9.586   8.629   2.064  0.2422  0.1422 -0.1356
    1W        W42258   8.278  22.193   2.499  0.4045 -0.0324 -0.0463
    1W        W42259   0.246  19.993   2.063  0.1414  0.1336  0.2512
    1W        W42260  23.137  28.511   0.874  0.2700  0.1489  0.1344
    1W        W42261  28.386  12.307   1.580 -0.0246 -0.0927  0.2565
    1W        W42262  22.284  21.321   0.527  0.4616  0.1476  0.1049
    1W        W42263  18.638   8.322   8.385  0.0536  0.4488 -0.1010
    1W        W42264  27.255  27.330   1.202  0.0746 -0.0446 -0.0322
    1W        W42265   4.759   3.537   0.070 -0.1803 -0.0382 -0.0221
    1W        W42266  18.737  14.260   7.523  0.0558 -0.0759  0.1136
    1W        W42267   6.377  23.521   8.476 -0.1566  0.0984 -0.1879
    1W        W42268  28.925  26.012   1.625  0.2343 -0.2315  0.1774
    1W        W42269   6.734   5.818   9.408 -0.0503 -0.1230 -0.0906
    1W        W42270  17.882  16.326   8.633  0.0702 -0.0315 -0.0034
    1W        W42271  16.738   9.789   1.805 -0.0993 -0.2687  0.0429
    1W        W42272   3.524  15.381   6.252 -0.0150  0.0536 -0.3228
    1W        W42273   0.911  25.300   9.399 -0.0135 -0.0076  0.0275
    1W        W42274   0.307  14.388   8.858 -0.2478 -0.1394  0.1250
    1W        W42275   1.610   4.806   0.041  0.5309  0.2532  0.0620
    1W        W42276  13.969  27.132   9.369  0.0555 -0.3619 -0.2369
    1W        W42277  17.662  24.381   3.401 -0.0254 -0.1611 -0.0562
    1W        W42278  25.986  18.111   1.155 -0.0135 -0.1068  0.2394
    1W        W42279  27.928   4.884   8.597 -0.1036 -0.1226  0.0269
    1W        W42280   5.187  28.577   2.564  0.0713  0.2004  0.0922
    1W        W42281   4.130   5.047   0.000  0.3017  0.1544 -0.0214
    1W        W42282  24.600  23.428   0.492  0.1154 -0.0160 -0.0824
    1W        W42283   9.858   1.674   0.035 -0.2223 -0.1215  0.3780
    1W        W42284   5.004  22.890   0.041  0.1964 -0.0647  0.3837
    1W        W42285   5.758  26.369   0.663  0.0050  0.2202  0.3050
    1W        W42286  16.083  13.564   2.320  0.0699  0.2292 -0.1669
    1W        W42287   3.281   8.440   2.883 -0.2564  0.2329  0.1266
    1W        W42288   3.647   3.239   9.360  0.2258  0.0257  0.1957
    1W        W42289  14.398  20.413   0.809  0.3756 -0.0746 -0.1271
    1W        W42290  20.946  28.371   3.219 -0.5293 -0.2478  0.0926
    1W        W42291  23.733   7.239   8.507  0.0442 -0.0612  0.3567
    1W        W42292  14.677  15.146   2.018  0.3194 -0.2887  0.3371
    1W        W42293   0.140  10.749   3.036  0.0799  0.1566  0.3820
    1W        W42294   3.379   3.625   0.587 -0.0028  0.1690  0.0448
    1W        W42295  27.162  17.333   9.107  0.3040 -0.1135  0.0094
    1W        W42296  13.671   6.077   8.136  0.0519 -0.2370  0.0844
    1W        W42297   1.983  18.014   2.162 -0.1212  0.0255  0.0433
    1W        W42298  15.091  14.513   1.421  0.1750 -0.0209 -0.0176
    1W        W42299  11.293  28.761   1.941  0.1893 -0.0264 -0.4328
    1W        W42300   1.508  12.601   9.420 -0.4074  0.2817  0.1344
    1W        W42301  23.555  23.238   8.260 -0.0025  0.0140 -0.0848
    1W        W42302  16.475  22.555   2.137 -0.1716  0.3126 -0.2301
    1W        W42303  19.979  15.459   7.692 -0.1494 -0.1510 -0.0252
    1W        W42304  20.013  17.782   9.411 -0.0809  0.4279  0.3393
    1W        W42305  25.465  29.271   7.146  0.2376  0.2711  0.0006
    1W        W42306   4.347  12.956   0.369 -0.0173  0.2488  0.4129
    1W        W42307  21.588  23.981   7.120 -0.2062  0.3097 -0.0737
    1W        W42308  15.974   3.254   0.879  0.1375  0.1482  0.0673
    1W        W42309  26.868  21.169   1.216  0.0596  0.2928  0.1491
    1W        W42310  15.360   9.979   8.569  0.1949  0.0051  0.3786
    1W        W42311  21.075  22.660   2.813  0.0462 -0.2206 -0.2789
    1W        W42312  15.846  18.436   2.202  0.0987  0.2833  0.0957
    1W        W42313   5.346  10.904   7.096  0.0195  0.4902 -0.0134
    1W        W42314  24.802  13.228   7.749  0.0788 -0.0250  0.2004
    1W        W42315  21.586   6.233   8.743  0.0246  0.0909  0.2475
    1W        W42316  22.736  21.977   1.353  0.0228  0.4058  0.0048
    1W        W42317  27.207  26.294   8.362 -0.2095  0.1197  0.4910
    1W        W42318  26.802  27.771   2.599  0.3711 -0.1051 -0.3208
    1W        W42319  11.488  15.262   1.541 -0.0360  0.0926  0.0457
    1W        W42320   1.594  14.498   7.960 -0.0305  0.1270  0.2168
    1W        W42321   6.013   0.680   7.065 -0.1292  0.0730  0.3704
    1W        W42322   3.868   5.600   2.267  0.0332 -0.1670  0.0323
    1W        W42323  16.527  13.122   0.884 -0.0825 -0.0911  0.1209
    1W        W42324  11.943   4.212   7.337  0.2082 -0.0107  0.1739
    1W        W42325  13.360  12.695   7.227  0.0242 -0.3221 -0.1096
    1W        W42326  16.107  12.220   0.716 -0.0968  0.0583 -0.2210
    1W        W42327  22.931   4.518   0.866  0.3473 -0.0323  0.0494
    1W        W42328   4.358   1.885   2.388  0.0471  0.1862 -0.3027
    1W        W42329   9.600  24.070   0.214 -0.1232  0.0207 -0.4707
    1W        W42330   5.011  14.750   0.703  0.1306  0.1512  0.2854
    1W        W42331  14.906  11.638   0.037 -0.0558  0.0370 -0.2639
    1W        W42332  16.336  20.593   2.346  0.3862 -0.0564 -0.2319
    1W        W42333  12.912   5.246   0.733  0.0540 -0.1597 -0.0777
    1W        W42334  17.060  16.858   1.697  0.0570  0.1981  0.0374
    1W        W42335   3.837   9.439   9.589  0.0116  0.2158 -0.1196
    1W        W42336  20.536   3.702   2.486  0.0510  0.0006 -0.0139
    1W        W42337   4.383  26.708   6.345 -0.0844  0.0549  0.1828
    1W        W42338   6.579   2.240   8.710 -0.0689  0.0596  0.0455
    1W        W42339   8.224  21.952   8.167 -0.1357 -0.1057 -0.1703
    1W        W42340  11.406  10.779   7.526 -0.0309  0.0143  0.2047
    1W        W42341   4.212  21.641   0.862 -0.0597 -0.0064 -0.3804
    1W        W42342   9.943  11.949   1.925 -0.0539  0.0736  0.2829
    1W        W42343  21.285  25.686   1.799 -0.3504  0.0666 -0.1287
    1W        W42344   1.445  10.378   1.645 -0.0663  0.1967 -0.3191
    1W        W42345  17.158  24.604   2.328  0.3954  0.1001  0.0947
    1W        W42346  15.284   0.978   0.787 -0.0809 -0.0201  0.0366
    1W        W42347  26.305  28.426   8.193  0.0635  0.0634 -0.1847
    1W        W42348   5.437   6.619   1.956 -0.2716  0.2203 -0.0401
    1W        W42349  21.293  20.217   8.162 -0.0756  0.0103 -0.1047
    1W        W42350  19.952   9.428   1.254 -0.3452 -0.2240 -0.1707
    1W        W42351  26.232  23.852   7.348  0.2660 -0.0810 -0.3534
    1W        W42352  26.891  26.666   8.165  0.2524 -0.1374  0.1234
    1W        W42353  27.265  14.626   9.307 -0.1544 -0.1239 -0.0132
    1W        W42354  25.567   1.114   8.092 -0.2637 -0.3236 -0.2513
    1W        W42355   9.698   0.822   0.415  0.1827  0.0145  0.1216
    1W        W42356   3.362  15.954   1.417 -0.1675 -0.2371 -0.1242
    1W        W42357  15.550  22.742   2.895  0.0905  0.1909 -0.1517
    1W        W42358  10.671   3.897   7.742 -0.2592 -0.0101  0.1366
    1W        W42359  23.068  21.909   7.873  0.1249  0.1856  0.0435
    1W        W42360   7.531   4.179   2.493 -0.0588 -0.0071  0.1071
    1W        W42361  19.603  21.371   2.061 -0.3089  0.1367  0.1791
    1W        W42362  12.783  10.501   9.658  0.1026  0.0638  0.2034
    1W        W42363  10.171  15.083   7.415  0.2917 -0.0168  0.1709
    1W        W42364  11.525  15.813   9.246 -0.1913  0.0025 -0.0844
    1W        W42365   8.093  14.120   8.000 -0.1168 -0.0823 -0.1482
    1W        W42366   5.414  22.242   8.884  0.2890  0.1261 -0.5635
    1W        W42367   2.745  19.279   6.649 -0.1908 -0.0267  0.0860
    1W        W42368   7.634  19.334   8.624 -0.2403 -0.0217  0.0814
    1W        W42369   7.455   8.483   7.950 -0.1514  0.1557  0.0076
    1W        W42370   1.838  24.711   9.495 -0.1548  0.1705  0.1055
    1W        W42371  18.629   5.519   7.761 -0.1540 -0.0339  0.0215
    1W        W42372   4.728  20.439   8.480 -0.2749  0.0955  0.1664
    1W        W42373  14.689  23.154   7.923 -0.0707  0.0954 -0.2960
    1W        W42374   5.644  23.158   1.603  0.0399 -0.0276 -0.0806
    1W        W42375  21.264  27.177   1.846 -0.1692 -0.0240  0.0774
    1W        W42376  27.215  13.574   6.107  0.2032  0.2115 -0.0732
    1W        W42377  24.477  20.900   8.416  0.2234  0.2026  0.0567
    1W        W42378   2.610  18.235   6.840  0.3779  0.1022 -0.1112
    1W        W42379   1.798  13.047   0.494  0.2494  0.0878 -0.1783
    1W        W42380  13.376  19.085   9.134 -0.3066  0.0037 -0.1847
    1W        W42381  14.610  29.319   3.645  0.2254 -0.1340  0.3066
    1W        W42382  21.311  13.119   0.069  0.5604  0.0874  0.0040
    1W        W42383   1.603   2.827   7.203  0.1075  0.0705 -0.1891
    1W        W42384  20.420  11.197   9.276 -0.1961 -0.1369 -0.2865
    1W        W42385   9.393   4.330   7.593 -0.3266 -0.0225  0.1958
    1W        W42386  17.208   1.421   0.625  0.2021 -0.2298 -0.1082
    1W        W42387  22.522  24.439   9.462  0.2096 -0.2890 -0.0370
    1W        W42388  25.176   8.956   8.851 -0.1589 -0.2873 -0.2299
    1W        W42389   8.205  23.901   6.017 -0.0826 -0.2067  0.0156
    1W        W42390  10.344   1.595   9.582 -0.0972 -0.1997  0.1609
    1W        W42391  12.004  23.402   7.343 -0.3892 -0.0238 -0.0662
    1W        W42392   5.758  12.571   0.688  0.0323  0.0363  0.2256
    1W        W42393  23.715   6.397   2.628 -0.1096 -0.1022  0.0725
    1W        W42394   6.098  26.576   1.047  0.1832 -0.1912 -0.3603
    1W        W42395  28.861  25.126   2.383 -0.4321  0.1007  0.1964
    1W        W42396   0.918  25.809   8.133  0.0487  0.1331 -0.2416
    1W        W42397  26.362   6.673   1.707 -0.0481  0.0561  0.1493
    1W        W42398  27.098   6.865   0.184 -0.2406 -0.0024 -0.2180
    1W        W42399   7.153  16.887   6.700  0.3110 -0.1480 -0.0197
    1W        W42400  25.757  25.903   8.710 -0.0342 -0.0674 -0.0407
    1W        W42401   3.388  21.824   6.690 -0.0942 -0.3555  0.1347
    1W        W42402  12.497   2.879   8.343  0.0443  0.2305  0.1440
    1W        W42403  11.908   4.579   2.653  0.0386  0.1551  0.0480
    1W        W42404  19.635   9.384   2.806 -0.0524 -0.0576  0.0450
    1W        W42405  13.936  24.837   8.295  0.3090  0.1213 -0.0634
    1W        W42406  19.659  14.424   9.076 -0.1743  0.0605 -0.1028
    1W        W42407  16.778   4.716   0.415 -0.2598 -0.1253  0.2374
    1W        W42408  28.349  26.614   8.540 -0.2309 -0.0802  0.1509
    1W        W42409   6.289   8.909   0.975  0.0085 -0.0764  0.1138
    1W        W42410  11.232  11.274   2.045  0.0946 -0.1189  0.1235
    1W        W42411   4.021  13.270   3.168  0.0466  0.0532 -0.1992
    1W        W42412   5.309   7.796   2.282  0.0537  0.3168 -0.1129
    1W        W42413   8.426   5.743   1.163  0.2025 -0.5636 -0.0947
    1W        W42414  25.307   3.570   7.401 -0.3662  0.1191 -0.1320
    1W        W42415   5.466  20.479   1.050  0.0735 -0.0524 -0.3316
    1W        W42416  16.052  10.000   7.856  0.3094  0.0924 -0.1843
    1W        W42417  26.746  16.599   9.600  0.1298 -0.3205  0.0295
    1W        W42418  20.422   1.400   9.011 -0.2648  0.1739 -0.0140
    1W        W42419  21.874  26.619   8.003  0.2011 -0.0546 -0.0399
    1W        W42420   0.126  16.043   7.457 -0.2023 -0.1599  0.3539
    1W        W42421  16.062  11.956   1.944  0.0562 -0.0726  0.2802
    1W        W42422   2.023  18.999   2.620  0.2204 -0.2154  0.0576
    1W        W42423  23.690   2.614   8.113  0.1794  0.0831 -0.0589
    1W        W42424  25.986  11.963   8.604  0.2037  0.0124  0.1216
    1W        W42425   1.510   6.485   0.816  0.3601  0.0599 -0.1542
    1W        W42426  19.604  17.855   2.417  0.2189 -0.0213 -0.0130
    1W        W42427   3.582   0.984   9.072 -0.0412 -0.0887  0.0145
    1W        W42428   9.411   2.712   1.047 -0.1569 -0.0396  0.0075
    1W        W42429  13.395   8.173   2.175  0.0086  0.2340  0.1342
    1W        W42430  29.027  11.953   5.940 -0.3028 -0.0910 -0.3270
    1W        W42431  16.918  24.541   0.541 -0.1660  0.0547  0.1215
    1W        W42432  28.700   3.190   1.611  0.3913 -0.0693 -0.0179
    1W        W42433  24.067  21.148   8.227  0.1658 -0.0611 -0.0023
    1W        W42434   9.473  26.238   7.378 -0.2618  0.0411  0.1484
    1W        W42435  18.184  16.314   8.001  0.4371  0.2038  0.0051
    1W        W42436   3.814  11.532   7.350  0.1339 -0.3009 -0.2449
    1W        W42437  14.430  21.497   0.366  0.1470  0.0965 -0.0472
    1W        W42438  15.995  13.891   8.801  0.1775 -0.1119  0.2688
    1W        W42439   1.327  10.734   8.603  0.1400  0.1295  0.1147
    1W        W42440   6.613  18.955   6.118  0.0857  0.0040 -0.0960
    1W        W42441   0.456   9.961   7.157  0.1739 -0.0088  0.0228
    1W        W42442  23.501   1.175   2.220  0.1208  0.0646 -0.5196
    1W        W42443  18.543   3.748   2.693  0.0652  0.0169 -0.0369
    1W        W42444  24.799  15.777   7.708 -0.0635  0.2651 -0.2934
    1W        W42445  12.280  18.385   8.127 -0.0159 -0.0401 -0.0957
    1W        W42446  16.327  13.303   1.349  0.1248 -0.1037 -0.1526
    1W        W42447  24.955  29.224   7.899  0.0514  0.3166  0.1237
    1W        W42448   1.185  13.816   6.595 -0.1641 -0.0201  0.1310
    1W        W42449  16.834  25.593   7.989  0.0830  0.0189  0.1722
    1W        W42450  19.078  27.890   1.448  0.1081  0.2857  0.1602
    1W        W42451  21.551   3.629   8.035  0.0916  0.0716 -0.3911
    1W        W42452  17.302  28.123   3.000  0.0512 -0.0025  0.0420
    1W        W42453  18.353   6.897   6.578 -0.1859 -0.2141 -0.1379
    1W        W42454  18.660  12.867   2.849 -0.2472  0.0642  0.0655
    1W        W42455  28.141   6.199   2.845 -0.2458  0.3173 -0.1167
    1W        W42456  15.338   5.148   0.267  0.0422  0.2895  0.0307
    1W        W42457  11.428   6.519   1.496  0.1088  0.0773 -0.2718
    1W        W42458  27.208   5.317   7.423 -0.0523 -0.0652  0.0605
    1W        W42459   0.674   4.068   1.303  0.1506  0.2705  0.0529
    1W        W42460   4.320  28.172   6.472  0.1575  0.0025  0.1436
    1W        W42461   6.019   9.510   7.597  0.0762  0.0118 -0.0288
    1W        W42462  19.401  18.687   8.878  0.1972  0.2902 -0.1277
    1W        W42463   1.555  24.270   0.232  0.1518  0.0840  0.1579
    1W        W42464  18.880  11.565   1.244 -0.0061  0.1974  0.0183
    1W        W42465  15.711   0.076   0.973  0.2000  0.1402  0.0298
    1W        W42466  16.330   5.017   9.221 -0.0357 -0.0628 -0.0713
    1W        W42467  18.987  13.857   1.503 -0.2901 -0.2338 -0.2121
    1W        W42468  16.783  22.623   0.685  0.0189 -0.0357 -0.0978
    1W        W42469  23.707  20.359   9.522 -0.0428 -0.0504 -0.1009
    1W        W42470   7.572  14.577   1.531 -0.1752 -0.0581  0.0209
    1W        W42471  11.907   3.740   1.401  0.0129 -0.1089 -0.1695
    1W        W42472  27.099   2.962   8.469  0.3271 -0.1250  0.2227
    1W        W42473  20.128  28.495   1.933 -0.0337 -0.0583  0.0216
    1W        W42474   2.549  27.113   8.222  0.0450 -0.1968 -0.0354
    1W        W42475  23.235  20.505   6.729  0.1717  0.0151 -0.1114
    1W        W42476   3.783  23.405   2.669  0.1821  0.1239 -0.3898
    1W        W42477   8.868  23.990   7.260 -0.1266 -0.0074  0.1178
    1W        W42478  15.535  24.548   1.395  0.0014 -0.1251 -0.2340
    1W        W42479  11.866  18.613   8.160 -0.0684 -0.1519  0.0965
    1W        W42480  20.305  23.659   8.008  0.0015  0.0791 -0.0995
    1W        W42481   1.316  20.751   6.062  0.0750 -0.0380 -0.2050
    1W        W42482  12.967  10.025   8.725 -0.1619  0.1046 -0.1493
    1W        W42483  23.780  24.882   0.343  0.0917  0.3782  0.1159
    1W        W42484   0.031  29.068   1.877  0.1710 -0.0172 -0.2602
    1W        W42485  15.316   0.773   1.889 -0.3250 -0.1342  0.2792
    1W        W42486  16.201  16.222   8.336  0.0913  0.2959 -0.1510
    1W        W42487  20.972  23.966   0.091 -0.0539  0.2772 -0.2670
    1W        W42488  21.051   2.612   9.121 -0.3482 -0.1166 -0.1896
    1W        W42489  23.685  26.566   0.668  0.0821  0.1515 -0.1720
    1W        W42490  21.005  15.889   0.572 -0.1801  0.0172  0.0470
    1W        W42491  13.967  22.741   8.265 -0.0230  0.0324 -0.0276
    1W        W42492   8.237  12.018   1.130  0.2606  0.1076  0.2986
    1W        W42493   7.233  23.843   0.945  0.2667 -0.1724  0.2429
    1W        W42494  26.739  19.298   6.737 -0.3655 -0.1819 -0.0521
    1W        W42495   0.650   1.115   8.524 -0.0805  0.0251 -0.2693
    1W        W42496  21.253  19.702   8.831  0.0540 -0.2742 -0.2948
    1W        W42497   1.244  21.041   9.606  0.1179 -0.1634 -0.1755
    1W        W42498   0.859  16.459   1.829  0.1696 -0.1589 -0.1468
    1W        W42499   2.968  19.223   8.233 -0.1934 -0.1282 -0.4146
    1W        W42500  10.370  16.105   2.625  0.0478  0.0652 -0.0134
    1W        W42501   1.182   7.021   6.423  0.0422 -0.1279 -0.2137
    1W        W42502   7.753   4.499   1.395 -0.0687  0.1321  0.2132
    1W        W42503  17.629  25.308   7.684 -0.0910 -0.0992 -0.2474
    1W        W42504   1.162  21.079   2.571  0.0513  0.0941 -0.0312
    1W        W42505   7.338  14.602   8.449 -0.0241  0.1358  0.1079
    1W        W42506  10.543   1.227   2.587  0.1532  0.2851  0.2759
    1W        W42507  28.724  12.576   6.893  0.3833 -0.3212 -0.0712
    1W        W42508  15.172  23.954   0.733 -0.1454 -0.2992  0.1738
    1W        W42509   5.995  23.994   0.932 -0.1478 -0.2110 -0.0794
    1W        W42510  13.909   9.340   0.279  0.0204  0.0612  0.0701
    1W        W42511  24.406  21.243   0.646 -0.1759 -0.0608  0.2325
    1W        W42512   2.771   8.491   6.511  0.0481 -0.2721  0.0591
    1W        W42513  17.799   0.972   7.701 -0.1545 -0.0355  0.1536
    1W        W42514   1.234  23.489   9.390 -0.2411  0.0802 -0.0925
    1W        W42515  27.056  10.931   1.582  0.1059  0.0184  0.1272
    1W        W42516  28.107   6.749   9.314 -0.2962 -0.1578  0.1516
    1W        W42517   7.802   0.765   3.050  0.1825  0.0304 -0.1665
    1W        W42518   2.801  26.751   1.816  0.1472  0.1714 -0.0082
    1W        W42519  28.288  26.006   8.727  0.0255  0.1055  0.0156
    1W        W42520  17.431   3.419   1.078  0.0093  0.2952 -0.2981
    1W        W42521  26.576   5.621   7.035 -0.1907 -0.3501 -0.1072
    1W        W42522  29.179   2.100   1.001  0.1754  0.1038  0.5134
    1W        W42523   3.302   2.650   0.852  0.0459  0.1326 -0.2376
    1W        W42524  19.550  27.428   3.856 -0.1489  0.0864 -0.0740
    1W        W42525  12.242  22.973   7.414  0.0298  0.4952  0.1568
    1W        W42526  27.297  27.848   1.475  0.1367  0.0858  0.3018
    1W        W42527  25.618   7.636   2.432 -0.1667 -0.0301  0.2874
    1W        W42528  24.129   7.921   5.972  0.0091  0.0116  0.2774
    1W        W42529  25.512  27.972   2.385 -0.0971  0.0847  0.0313
    1W        W42530  29.096  25.169   1.587 -0.0574  0.3348  0.0101
    1W        W42531   6.330   4.664   8.696 -0.0317  0.1142 -0.3555
    1W        W42532  20.622  23.471   6.221 -0.3945  0.0870  0.0889
    1W        W42533  25.383  27.851   0.236  0.0986 -0.0392  0.0934
    1W        W42534  10.101  14.371   1.505  0.0359 -0.2871  0.0076
    1W        W42535  25.260  12.748   7.185 -0.2774 -0.1136  0.1675
    1W        W42536  13.372  18.003   1.989  0.4789 -0.4004  0.2160
    1W        W42537  10.452   3.172   9.622 -0.2196 -0.0925 -0.2889
    1W        W42538  15.147  19.136   9.604 -0.1701  0.3125  0.0944
    1W        W42539  27.867  12.753   6.325 -0.1901 -0.1401  0.0261
    1W        W42540  26.769  21.416   8.562 -0.0385 -0.0144 -0.0984
    1W        W42541   5.390  23.223   8.027 -0.1536 -0.2707  0.0778
    1W        W42542  20.641  11.845   2.174 -0.3345  0.1057 -0.0073
    1W        W42543   9.245  28.103   4.271 -0.1717 -0.2783  0.1530
    1W        W42544   4.796  18.975   5.533 -0.0782  0.0848 -0.2409
    1W        W42545  25.114  21.183   2.227  0.2118  0.2380  0.4558
    1W        W42546  28.010   7.567   0.559  0.0764 -0.1310  0.0886
    1W        W42547   6.088  13.401   8.759 -0.1464  0.2136  0.1105
    1W        W42548  10.637   2.368   9.522 -0.1244  0.4221 -0.2661
    1W        W42549  18.401  19.094   1.194 -0.1491  0.1359 -0.2261
    1W        W42550  16.316  17.714   1.010 -0.2581  0.0228 -0.0510
    1W        W42551  10.152  21.451   6.643  0.2957 -0.3953 -0.3904
    1W        W42552   8.168  17.943   1.208  0.1134 -0.0098  0.1863
    1W        W42553  12.929   1.984   1.410  0.0909  0.2042 -0.0555
    1W        W42554  19.282   8.735   8.052 -0.1071 -0.0823 -0.0839
    1W        W42555  12.379   3.756   2.688 -0.1668  0.0981  0.2279
    1W        W42556   8.705  28.429   1.728  0.0507 -0.0328 -0.4615
    1W        W42557   0.256  14.232   2.683 -0.1160  0.0432  0.0326
    1W        W42558   8.765   1.063   3.025 -0.2139 -0.0588  0.2628
    1W        W42559   9.822  19.075   8.787 -0.0746 -0.0902 -0.0943
    1W        W42560  17.517   8.617   8.929 -0.0862  0.0795  0.1218
    1W        W42561   4.492   2.428   9.316  0.0200  0.2545 -0.1673
    1W        W42562   0.779   5.274   1.538  0.1910 -0.1361  0.0663
    1W        W42563  28.845  11.380   8.451  0.1063  0.1320 -0.4965
    1W        W42564  28.881  17.939   1.491  0.1941  0.0562 -0.2296
    1W        W42565   1.970  24.365   8.455 -0.1107 -0.0968 -0.2139
    1W        W42566  14.353  22.747   7.879  0.0862 -0.1013  0.4993
    1W        W42567  11.619   0.636   2.420 -0.2947  0.0834  0.2547
    1W        W42568  17.114  25.644   3.401  0.0169  0.3428  0.0945
    1W        W42569  14.408   1.606   0.896 -0.1722  0.1994 -0.0018
    1W        W42570   6.610   9.898   7.709 -0.3604 -0.1069 -0.1070
    1W        W42571   9.726   8.849   2.487  0.0004 -0.1241 -0.0035
    1W        W42572   7.124   7.202   7.810  0.2761  0.1047  0.0546
    1W        W42573  13.974   4.248   7.672  0.4113  0.0739 -0.3512
    1W        W42574  24.787   3.699   0.027  0.1734 -0.0309 -0.3869
    1W        W42575  23.140  18.779   0.055  0.0247  0.1111  0.0018
    1W        W42576  28.349  17.134   8.460  0.0774  0.6156 -0.1817
    1W        W42577  26.544   6.157   1.659 -0.0893 -0.3208  0.1962
    1W        W42578  18.725  17.493   0.255 -0.1534  0.1577 -0.0388
    1W        W42579   7.797  16.821   1.969  0.0877 -0.0253 -0.1676
    1W        W42580   8.964  27.104   9.561  0.2331 -0.3039 -0.2681
    1W        W42581  14.564   3.159   7.798 -0.0961 -0.0142 -0.2475
    1W        W42582  19.015   6.652   1.072 -0.1435  0.3168 -0.1282
    1W        W42583  26.110  25.847   2.285 -0.0084  0.0638 -0.0740
    1W        W42584   4.733  18.703   8.988  0.0997 -0.1245 -0.0718
    1W        W42585   1.795  12.221   7.585  0.0364 -0.2211 -0.2577
    1W        W42586  26.272  23.454   9.206  0.3283  0.2203 -0.1634
    1W        W42587   1.523  22.313   1.586 -0.2582 -0.1725  0.0301
    1W        W42588  21.295   4.417   8.794 -0.0473  0.0173  0.2125
    1W        W42589  24.313   8.195   7.644  0.1486 -0.0926  0.2149
    1W        W42590   8.007   9.157   2.726  0.0966 -0.1030 -0.4136
    1W        W42591   1.300   1.260   1.652 -0.0471  0.2159  0.0425
    1W        W42592  19.857  15.632   8.231 -0.1956 -0.0345  0.2028
    1W        W42593   8.429  21.611   9.666  0.0099 -0.0048  0.2600
    1W        W42594  16.558   1.343   1.945  0.1559 -0.1377 -0.0381
    1W        W42595  26.645   5.077   1.486 -0.0477 -0.1790 -0.1709
    1W        W42596  18.771   6.168   8.596  0.0872  0.1135  0.1788
    1W        W42597  20.902  12.191   7.425 -0.0750 -0.2172 -0.1222
    1W        W42598  24.699  16.724   1.380  0.1729 -0.0870 -0.0577
    1W        W42599  16.590   2.120   3.116  0.0096  0.1985  0.0785
    1W        W42600   0.872  21.701   1.320  0.0111 -0.0843  0.0703
    1W        W42601  28.875   2.294   8.832  0.1099  0.2328 -0.1550
    1W        W42602   8.598   2.827   2.283 -0.0528  0.2809 -0.1371
    1W        W42603  17.134   7.433   2.529  0.0737  0.2343 -0.2813
    1W        W42604  18.199  27.030   2.621  0.2388 -0.0241 -0.0223
    1W        W42605  24.142  22.680   6.646 -0.2570 -0.0397  0.0290
    1W        W42606  11.156   4.482   9.235  0.0576 -0.0777 -0.1087
    1W        W42607  25.219  10.701   1.990 -0.0700 -0.0774 -0.1465
    1W        W42608  17.206  26.198   9.108  0.0044 -0.0781  0.3522
    1W        W42609  10.123  27.268   0.791  0.1643  0.1107 -0.2100
    1W        W42610  27.176  16.606   1.518  0.0754  0.0826 -0.2519
    1W        W42611   0.173  22.245   6.282 -0.0796 -0.2769 -0.1169
    1W        W42612  17.720   2.331   1.882  0.0975  0.1419 -0.2782
    1W        W42613  27.965  27.401   1.114 -0.0734 -0.2305  0.2259
    1W        W42614  10.537  17.831   8.035 -0.2685  0.0221  0.0206
    1W        W42615  25.879   4.778   7.911 -0.0616 -0.0250  0.0905
    1W        W42616  21.129  11.977   2.358  0.1958  0.0251 -0.0912
    1W        W42617  27.802  25.325   2.202  0.3030 -0.1587 -0.2062
    1W        W42618  16.364   8.765   1.055 -0.0932  0.2153 -0.1122
    1W        W42619  24.834   6.629   0.691 -0.0657 -0.0279  0.3980
    1W        W42620  17.599  10.794   2.189 -0.1453  0.1569 -0.0166
    1W        W42621  22.770  13.085   8.436 -0.3145 -0.1008  0.2315
    1W        W42622  27.158  22.275   0.389  0.0933  0.0997  0.2933
    1W        W42623  20.936  26.855   2.370  0.0672 -0.1853  0.0198
    1W        W42624  23.961  17.491   8.246  0.0253 -0.3398  0.2168
    1W        W42625  23.089  25.047   2.557  0.0808  0.2180 -0.0634
    1W        W42626  19.071   9.305   7.432 -0.0996  0.1189 -0.3059
    1W        W42627  15.587  28.087   8.547  0.0558  0.1686  0.0337
    1W        W42628  20.876  22.204   1.018 -0.0203  0.0368  0.2835
    1W        W42629  14.410  16.977   8.051  0.2990 -0.0120  0.3221
    1W        W42630  13.263   2.228   2.427 -0.2845 -0.1638  0.0807
    1W        W42631   7.675  13.313   2.070  0.0210  0.1626 -0.3096
    1W        W42632  18.240  17.871   0.725  0.3236  0.3713 -0.1999
    1W        W42633   4.537  17.111   0.412  0.0788 -0.0653 -0.0072
    1W        W42634   2.192   2.167   6.570  0.1089  0.2318 -0.0802
    1W        W42635  14.368   3.786   3.608 -0.0076 -0.1650  0.0230
    1W        W42636  23.879  25.844   7.202 -0.1893 -0.3831  0.0261
    1W        W42637  19.871  19.451   9.623 -0.1237  0.2619 -0.1659
    1W        W42638   3.122  22.903   8.857  0.0102  0.2531 -0.1625
    1W        W42639   1.508  15.407   7.710 -0.1619  0.1063  0.4221
    1W        W42640  12.834   2.111   0.577 -0.0354 -0.0864 -0.1615
    1W        W42641   9.845  25.910   8.959 -0.2247 -0.0830  0.3715
    1W        W42642   1.505   7.782   0.852 -0.0147  0.0298 -0.3483
    1W        W42643  23.722  20.447   8.678  0.1523  0.2053 -0.2060
    1W        W42644   1.183  23.160   6.894  0.3239  0.3710 -0.0534
    1W        W42645  12.942  22.724   6.054 -0.1655 -0.1308 -0.0133
    1W        W42646   8.326  17.176   8.867  0.0796  0.0990 -0.1094
    1W        W42647  10.931   5.769   8.096 -0.0179  0.0725  0.2039
    1W        W42648  28.042   8.910   8.415 -0.0710 -0.1608 -0.0158
    1W        W42649   2.009   8.167   2.000 -0.1087 -0.0423  0.2589
    1W        W42650   7.188   6.006   9.393  0.1283 -0.0397  0.1935
    1W        W42651  28.402  21.930   9.459 -0.0983 -0.0328 -0.0367
    1W        W42652  19.830   0.598   2.536 -0.1705  0.1295 -0.1563
    1W        W42653   4.082   5.216   1.069 -0.0878  0.1219  0.0395
    1W        W42654  11.686  19.375   2.469  0.0558  0.0042 -0.0384
    1W        W42655   8.539   8.419   0.631  0.3186 -0.1339  0.3093
    1W        W42656  16.381  23.894   1.776 -0.2190 -0.0769  0.0403
    1W        W42657  10.825   0.345   9.571  0.2350  0.0273 -0.0451
    1W        W42658  25.432   5.150   6.958 -0.4297 -0.3877 -0.0109
    1W        W42659   4.322  11.271   0.918 -0.2320 -0.1985 -0.1810
    1W        W42660  27.312  22.981   6.504 -0.0668 -0.1168  0.1274
    1W        W42661  12.504  11.570   1.922  0.0108  0.1225 -0.0244
    1W        W42662  23.363   4.169   6.771 -0.0235  0.1687  0.0393
    1W        W42663  16.615  28.703   0.642  0.1637  0.1866 -0.0768
    1W        W42664  17.493   0.528   7.901  0.0315  0.0744  0.1390
    1W        W42665  28.806   7.323   6.510  0.2777  0.0184 -0.2393
    1W        W42666  12.495   1.754   0.650 -0.2581 -0.0470 -0.0298
    1W        W42667  16.283  18.838   8.831 -0.4822  0.2519 -0.0753
    1W        W42668  13.432  17.246   2.496  0.3793  0.0190 -0.3463
    1W        W42669   8.422  13.762   7.730 -0.2888 -0.0100 -0.1013
    1W        W42670  12.724   3.407   8.626  0.0311  0.0157  0.1369
    1W        W42671  24.492  18.575   7.370  0.1046  0.1229  0.0113
    1W        W42672   1.310  17.159   8.894  0.1101 -0.0000  0.0509
    1W        W42673  10.721   0.802   2.937 -0.0691 -0.1276 -0.2083
    1W        W42674  11.895  21.564   1.723 -0.1699 -0.1059  0.1352
    1W        W42675   8.674  11.812   8.416 -0.4030  0.0743  0.0630
    1W        W42676  24.527  24.869   9.259 -0.1465  0.1718  0.0392
    1W        W42677   5.527   2.569   2.351 -0.2316  0.1117  0.0727
    1W        W42678   2.759  16.108   6.564 -0.1674  0.2292  0.1792
    1W        W42679  13.024   3.213   9.579 -0.1241 -0.0551 -0.1181
    1W        W42680  23.024   3.368   6.914 -0.2207 -0.1110 -0.0313
    1W        W42681  21.876  14.608   9.241  0.1763  0.0135 -0.1946
    1W        W42682   4.606  10.302   2.136  0.0017  0.0590  0.1004
    1W        W42683  20.831  13.189   8.371  0.0086 -0.0858  0.2772
    1W        W42684  12.853  21.972   2.805  0.0752  0.1451  0.1030
    1W        W42685   8.172  27.351   2.664 -0.1502  0.2057 -0.1322
    1W        W42686   5.830  28.658   7.245  0.0713 -0.1119  0.0660
    1W        W42687  19.065   0.218   2.629 -0.1807  0.3465  0.0468
    1W        W42688  12.369   1.545   9.402  0.1812 -0.3454  0.0142
    1W        W42689  17.117   4.765   0.787 -0.1916  0.3278 -0.2383
    1W        W42690  12.766   5.439   8.190 -0.0002  0.2364  0.1529
    1W        W42691   9.989  28.216   1.278  0.4081  0.1299  0.1070
    1W        W42692  21.249   6.849   9.305  0.1281  0.0049  0.0335
    1W        W42693   7.658  12.501   7.091 -0.1037  0.1410  0.0546
    1W        W42694  12.959   9.186   0.328  0.0809  0.1579  0.1340
    1W        W42695  22.862  19.124   9.501  0.2637  0.1912  0.3174
    1W        W42696  17.833  26.816   2.291  0.4144  0.1247 -0.2613
    1W        W42697  25.754  23.285   9.305 -0.1267  0.2032  0.0588
    1W        W42698  26.672   4.986   8.678 -0.0516 -0.2126 -0.0508
    1W        W42699  12.721  24.947   7.105  0.1159  0.0154 -0.0219
    1W        W42700  26.953   2.322   1.393 -0.0961 -0.0751  0.1070
    1W        W42701  20.399   9.907   9.626 -0.0513 -0.0664  0.4283
    1W        W42702  26.461  18.161   0.262  0.1369  0.3182  0.3703
    1W        W42703   7.426   9.280   1.621  0.2579 -0.1304 -0.1218
    1W        W42704  15.252  25.258   7.330  0.0658  0.0459  0.3187
    1W        W42705   0.414  10.683   7.786  0.1565  0.0375  0.0335
    1W        W42706  11.794   7.113   9.646 -0.2833 -0.2828  0.1706
    1W        W42707  27.930  10.586   6.675 -0.2484  0.0854 -0.0417
    1W        W42708  22.500   4.448   1.144 -0.1838  0.0527  0.4204
    1W        W42709  12.056  23.399   8.316 -0.0365  0.2500  0.4218
    1W        W42710  10.608  11.108   0.946  0.0926  0.1836 -0.3149
    1W        W42711   2.167   0.358   2.111 -0.0423  0.3044  0.1286
    1W        W42712  13.959  13.305   0.769  0.2371  0.0684 -0.1082
    1W        W42713  21.248  17.270   8.085 -0.1249 -0.3055 -0.2296
    1W        W42714   0.211  25.333   1.784  0.2727  0.0293 -0.2888
    1W        W42715   1.011  16.174   0.954  0.1300 -0.1123  0.0372
    1W        W42716  27.186  24.540   6.450 -0.4641  0.1917  0.2933
    1W        W42717  21.596  28.870   8.588  0.0754 -0.0410 -0.2830
    1W        W42718   5.239  20.253   8.593  0.1804  0.1793  0.2146
    1W        W42719   7.317  12.680   7.649  0.0323 -0.1124  0.1197
    1W        W42720  26.758   9.171   9.611 -0.0457 -0.2129  0.0714
    1W        W42721   4.590   9.486   6.299  0.0636  0.3217  0.0196
    1W        W42722  21.232  13.997   7.489  0.2996  0.1444 -0.1237
    1W        W42723  21.440  23.183   9.179 -0.0089  0.4543 -0.0650
    1W        W42724  29.043   9.495   7.766 -0.0443 -0.4656 -0.0302
    1W        W42725  27.432  28.544   8.735  0.0607  0.1393 -0.3565
    1W        W42726   5.504  12.367   2.423  0.1261 -0.2432 -0.0539
    1W        W42727  11.037   3.465   9.388 -0.1034  0.1933 -0.2669
    1W        W42728  11.138   0.560   9.005 -0.0662  0.2431 -0.1472
    1W        W42729  14.704  24.038   1.264  0.2070  0.2981  0.2407
    1W        W42730   7.702  25.104   0.512  0.0075  0.2057 -0.1083
    1W        W42731   3.349  27.810   7.521  0.2684  0.1171  0.3211
    1W        W42732   7.566  12.226   7.597  0.0129  0.2651  0.3059
    1W        W42733  13.494  26.204   1.555  0.0203 -0.1199 -0.0879
    1W        W42734  20.905  23.470   1.800 -0.4085  0.2504  0.1098
    1W        W42735   2.924   9.520   9.172  0.2729  0.2304  0.3330
    1W        W42736  23.402  28.894   9.041 -0.2001  0.0199 -0.2349
    1W        W42737  27.641  16.821   5.594  0.1445  0.0433  0.3505
    1W        W42738  13.887  15.663   7.647 -0.3433  0.4247 -0.1745
    1W        W42739  29.318  22.952   2.476  0.0001 -0.2065  0.4737
    1W        W42740  18.335   6.092   2.555 -0.4025 -0.0641 -0.1906
    1W        W42741  16.314  23.153   2.553 -0.1563  0.5859  0.1652
    1W        W42742  22.457   3.467   8.181 -0.1137 -0.1877  0.1696
    1W        W42743  26.732  28.306   2.578 -0.0784  0.0368  0.2063
    1W        W42744  17.582  22.290   7.403  0.1180 -0.3387 -0.2697
    1W        W42745  10.235  13.036   6.958 -0.4096 -0.0562  0.2900
    1W        W42746   7.176  13.932   2.117  0.2268  0.1714  0.0276
    1W        W42747  17.264  12.339   2.016 -0.2617  0.0313  0.0606
    1W        W42748  11.472  20.742   9.036 -0.0660 -0.2641 -0.2194
    1W        W42749   0.513  25.268   0.352 -0.2525 -0.0530 -0.1869
    1W        W42750  19.145  27.800   7.808 -0.0292  0.2752 -0.0412
    1W        W42751  29.333  11.312   6.335  0.1927 -0.1333 -0.2900
    1W        W42752  12.796  27.330   8.544 -0.0902  0.1391  0.2652
    1W        W42753  14.947  12.371   2.404  0.0092  0.3746 -0.1151
    1W        W42754  26.027  21.934   9.641 -0.1192 -0.1175  0.1216
    1W        W42755  14.186   0.028   3.299 -0.2843 -0.0237  0.0859
    1W        W42756  14.370   4.240   3.413 -0.1833 -0.1781  0.1009
    1W        W42757  21.665  18.037   1.222 -0.0420 -0.5498  0.1097
    1W        W42758   1.784   6.560   1.791  0.2416 -0.1245  0.0760
    1W        W42759  22.410   7.332   0.941  0.2568  0.1690  0.0131
    1W        W42760   3.402   5.967   2.493  0.2475  0.1201 -0.0875
    1W        W42761  26.988   7.210   1.374 -0.2155  0.0585  0.0404
    1W        W42762  15.580  10.177   3.235  0.2704  0.1387 -0.1717
    1W        W42763  21.691  26.955   1.511 -0.0076  0.0451 -0.0231
    1W        W42764   2.718  13.951   6.863  0.1691  0.0812 -0.2266
    1W        W42765  20.715   3.021   7.289  0.1477 -0.1564  0.1917
    1W        W42766   3.696  27.272   1.688 -0.2560  0.1785  0.1726
    1W        W42767  13.459  18.683   8.260 -0.4459 -0.0979  0.0683
    1W        W42768  12.259  17.237   9.500  0.0005  0.1777 -0.1412
    1W        W42769  21.380  26.582   1.646 -0.0539 -0.3224 -0.0121
    1W        W42770   5.979   9.555   2.195  0.4672 -0.0093  0.0682
    1W        W42771  10.165  24.463   6.311 -0.0113 -0.1620  0.0408
    1W        W42772  23.046  24.689   7.719  0.1567  0.0679  0.0568
    1W        W42773  27.901   7.103   7.591  0.0846  0.0444  0.0130
    1W        W42774  19.967   6.539   3.453  0.0593  0.1354  0.1748
    1W        W42775  15.538  12.154   8.758 -0.0830 -0.0375  0.0516
    1W        W42776  10.172  13.883   7.976 -0.2776 -0.0632  0.0292
    1W        W42777   4.133   8.338   1.468  0.1136 -0.0351 -0.0236
    1W        W42778  29.205  22.670   1.932 -0.1388  0.0899 -0.0148
    1W        W42779  11.968   7.869   8.494  0.1226 -0.1186  0.4036
    1W        W42780   7.411   1.418   1.813 -0.0724 -0.3934 -0.0249
    1W        W42781   7.060  18.698   5.533 -0.2069  0.1026 -0.0756
    1W        W42782  16.841   7.814   7.557 -0.0089  0.0042 -0.1718
    1W        W42783  15.939   5.774   7.679 -0.1123  0.1442  0.0464
    1W        W42784  20.776  10.416   8.108 -0.1074  0.0916  0.0116
    1W        W42785  18.385  24.356   8.041  0.1027 -0.0636  0.1430
    1W        W42786   3.260  27.029   1.812  0.1587 -0.3803  0.2466
    1W        W42787   3.527  16.712   6.562 -0.0661  0.2442 -0.2146
    1W        W42788   9.207   2.126   0.836  0.0507 -0.3019 -0.2641
    1W        W42789   0.719   6.487   1.554 -0.0717  0.1732 -0.3564
    1W        W42790  23.009  12.225   1.750 -0.1438  0.1147 -0.0162
    1W        W42791  25.436  25.779   2.942 -0.4415 -0.1861 -0.0436
    1W        W42792   9.501   8.597   7.646  0.2615  0.1023 -0.0350
    1W        W42793  18.794   1.232   9.048 -0.2408 -0.0224 -0.0745
    1W        W42794   1.209   7.525   7.060 -0.1175  0.2034 -0.0537
    1W        W42795   0.835  17.826   6.623 -0.3162  0.2351  0.1798
    1W        W42796   3.672  12.814   8.438  0.0427  0.0308 -0.0945
    1W        W42797  22.857  24.559   0.196 -0.0727  0.1226 -0.2271
    1W        W42798  18.446   2.917   8.956 -0.1070  0.1254 -0.1105
    1W        W42799  12.002  17.330   1.872  0.0686 -0.0095 -0.3061
    1W        W42800  14.984   2.690   2.101 -0.1182  0.0054 -0.1775
    1W        W42801  11.535  20.904   9.522  0.1735  0.1587  0.0617
    1W        W42802  12.808  27.460   2.023 -0.0369  0.0544 -0.1887
    1W        W42803  22.299  21.914   9.386 -0.1624 -0.0879  0.0895
    1W        W42804  23.536  17.308   8.155 -0.2020  0.2553  0.3145
    1W        W42805   4.473  28.115   9.219 -0.1202  0.1820 -0.0458
    1W        W42806  21.403  23.676   6.555 -0.1691 -0.2979 -0.1471
    1W        W42807   5.100  12.740   6.052 -0.0338  0.1245 -0.2491
    1W        W42808   7.093  29.348   7.234  0.0279  0.1222 -0.4616
    1W        W42809   2.690   2.200   8.820 -0.0218 -0.0680 -0.2081
    1W        W42810   5.771  16.768   6.201 -0.0317  0.1586 -0.1299
    1W        W42811   8.286  12.445   0.829  0.4513 -0.2934  0.0613
    1W        W42812  16.282   8.086   2.589 -0.0422  0.0391 -0.2269
    1W        W42813  14.430   2.156   2.246 -0.3511 -0.0806  0.1439
    1W        W42814   1.940   6.780   6.280  0.5988  0.0155 -0.1277
    1W        W42815  12.898  11.045   8.447 -0.2109  0.2038  0.2232
    1W        W42816   1.055  17.632   2.681 -0.1883  0.0312 -0.0845
    1W        W42817  18.283  17.039   8.283 -0.0960  0.0508 -0.0000
    1W        W42818  12.933  21.144   9.427  0.1933 -0.2339 -0.2940
    1W        W42819  12.933  13.287   2.898  0.0346  0.0511 -0.0194
    1W        W42820  18.388   6.618   9.341 -0.1217 -0.1797  0.1199
    1W        W42821   0.842   5.386   6.267 -0.0149  0.0331 -0.2309
    1W        W42822  14.147  12.387   9.513 -0.3047  0.0027 -0.0934
    1W        W42823  28.635  12.261   9.406  0.3166  0.1717  0.1929
    1W        W42824  22.796  16.408   0.347  0.0480  0.0944  0.0453
    1W        W42825  21.290   2.232   0.046  0.2196 -0.1867  0.0782
    1W        W42826  21.375  14.650   8.459 -0.0490 -0.2910  0.2407
    1W        W42827   6.495   4.646   3.138  0.0410  0.0121 -0.2734
    1W        W42828  19.516  15.943   8.152  0.3646  0.0130 -0.0651
    1W        W42829   1.104  23.802   7.433 -0.0735  0.1785  0.2582
    1W        W42830   2.471  10.393   7.428 -0.1243  0.2139  0.3292
    1W        W42831  23.095  24.746   2.162 -0.1175  0.2133 -0.0597
    1W        W42832  27.135  17.036   1.305  0.0821  0.2078  0.1133
    1W        W42833   1.151  25.881   8.586  0.1874  0.0113  0.1133
    1W        W42834  17.060   9.289   8.162 -0.0693 -0.2462  0.0081
    1W        W42835   5.326   3.895   2.674  0.4067  0.2276  0.0052
    1W        W42836  26.416  21.637   2.446 -0.1582  0.2446  0.0593
    1W        W42837  26.419  22.735   8.053  0.1152  0.1734  0.1023
    1W        W42838   6.663  10.475   7.660  0.0848 -0.1866  0.1573
    1W        W42839  13.673  27.506   3.057 -0.0549 -0.0336 -0.0328
    1W        W42840   9.182  16.767   2.483  0.4078 -0.2257 -0.2395
    1W        W42841  10.723  19.907   9.463  0.1304 -0.2395 -0.2945
    1W        W42842  26.024  28.726   7.918 -0.0658  0.1029 -0.0520
    1W        W42843   9.599  27.737   8.370  0.3332  0.2195 -0.2111
    1W        W42844  25.073  17.835   2.694  0.4905  0.1359  0.0211
    1W        W42845  10.810  21.590   1.863 -0.0936 -0.0461  0.0627
    1W        W42846  23.662  27.542   7.609  0.1616 -0.0974  0.0416
    1W        W42847   5.305   6.533   9.584 -0.1231  0.0970 -0.1143
    1W        W42848   6.208  26.706   1.896  0.2386 -0.0201 -0.1039
    1W        W42849  15.839   0.909   8.940 -0.1255 -0.0931 -0.0560
    1W        W42850  20.113  25.009   3.062  0.1847 -0.3669 -0.1930
    1W        W42851   1.724   9.034   2.061  0.1454  0.2141  0.0381
    1W        W42852  27.810   2.031   7.472 -0.1585  0.0029  0.0533
    1W        W42853  23.897  13.339   1.776 -0.2234  0.0972  0.2673
    1W        W42854  16.983  24.016   7.111 -0.2476 -0.2508  0.2059
    1W        W42855  28.452  13.581   8.116 -0.2038 -0.1512 -0.0968
    1W        W42856   5.204  22.383   0.090  0.0694  0.0329  0.1433
    1W        W42857   8.853  10.599   3.364  0.0948  0.1463  0.0414
    1W        W42858  22.659   0.768   6.493 -0.0273  0.2409 -0.2117
    1W        W42859  22.633  18.254   1.421 -0.1019  0.0306 -0.1472
    1W        W42860   1.201   0.639   1.017 -0.4966  0.1494  0.0256
    1W        W42861   3.562  25.146   2.442 -0.0815  0.1211 -0.1160
    1W        W42862  16.393   2.553   1.332  0.2140 -0.1710  0.1806
    1W        W42863  18.677   6.842   6.977  0.0683 -0.1379 -0.0590
    1W        W42864   2.534   5.096   6.591  0.1136 -0.1664 -0.2945
    1W        W42865  27.427  17.565   6.755  0.1805 -0.3053  0.0154
    1W        W42866  23.710   9.761   0.390  0.1335  0.1605  0.3703
    1W        W42867  28.369   4.644   2.603  0.0475 -0.2420 -0.1475
    1W        W42868   6.233  13.899   8.493  0.0629 -0.0377 -0.0891
    1W        W42869  27.366  11.165   6.055  0.1446 -0.0801  0.1442
    1W        W42870   4.207   9.184   8.309 -0.1055  0.0845  0.0230
    1W        W42871   9.704  28.694   3.546  0.2526 -0.1739  0.1997
    1W        W42872  26.212  16.147   0.819 -0.2735 -0.1455  0.5020
    1W        W42873   6.348  14.892   7.461 -0.1652 -0.2354  0.1094
    1W        W42874  26.443  12.880   6.692  0.0260 -0.2697 -0.3149
    1W        W42875  24.244   0.964   9.601 -0.0339  0.1537 -0.1370
    1W        W42876  17.665  10.755   0.756 -0.3313  0.0393  0.2790
    1W        W42877   4.288  18.234   0.221 -0.1893 -0.3227 -0.2615
    1W        W42878  17.445   3.220   2.051  0.0161  0.3777  0.1467
    1W        W42879  24.834  12.223   1.338 -0.2076  0.1645 -0.0904
    1W        W42880   9.816   2.028   8.844  0.0801 -0.2820 -0.0855
    1W        W42881  16.540   5.127   3.136  0.1558  0.1531  0.2753
    1W        W42882  21.575  20.636   9.379 -0.0317  0.0945 -0.0710
    1W        W42883  22.988  17.952   7.902 -0.1138 -0.1023 -0.1409
    1W        W42884   9.481  16.894   0.287 -0.0354  0.0862  0.0546
    1W        W42885  15.201  28.935   8.924 -0.5979  0.0362  0.3281
    1W        W42886  14.630  14.680   7.317 -0.2214 -0.1522  0.1671
    1W        W42887   9.952  21.848   0.931 -0.1797  0.1847  0.1463
    1W        W42888  29.033  18.351   6.053 -0.1377  0.2087 -0.0348
    1W        W42889   9.539   6.367   1.767  0.0430  0.1004 -0.1699
    1W        W42890  11.111   9.096   1.547 -0.0938  0.1537  0.1652
    1W        W42891  10.734  23.574   2.819  0.0899  0.0536  0.5045
    1W        W42892   7.134  26.832   3.066  0.1983 -0.2602 -0.0591
    1W        W42893   2.849   9.378   8.143  0.0241 -0.1534 -0.1269
    1W        W42894  23.316   8.866   6.241  0.0852  0.2276  0.3381
    1W        W42895  16.456   3.595   0.118  0.0669  0.2735 -0.1710
    1W        W42896  29.092   4.741   7.922 -0.0653 -0.1439  0.1743
    1W        W42897   6.310   9.755   8.950 -0.0075  0.2158 -0.0702
    1W        W42898   2.742  11.915   0.114 -0.3411  0.0518  0.2208
    1W        W42899   4.406   1.151   9.396  0.0385  0.2319  0.2638
    1W        W42900  26.618  19.260   8.893  0.2303 -0.0742 -0.1778
    1W        W42901  10.061   5.540   2.013 -0.0045 -0.4600 -0.0717
    1W        W42902   6.421  28.560   2.193 -0.1798  0.2222 -0.0163
    1W        W42903   0.270   7.126   3.542 -0.2195 -0.1673  0.0701
    1W        W42904   6.722   8.269   0.548  0.2708 -0.0405  0.1552
    1W        W42905  16.626  18.550   8.079 -0.2228  0.1910  0.1214
    1W        W42906   0.916  21.069   9.229  0.0627 -0.0463  0.1765
    1W        W42907  15.681  26.125   2.486 -0.1017 -0.1860 -0.3554
    1W        W42908  22.610   2.545   1.280  0.1720  0.0867  0.2553
    1W        W42909  15.119  11.275   9.390  0.1254  0.1152 -0.1082
    1W        W42910  17.944   6.385   1.133 -0.0014 -0.0165  0.0406
    1W        W42911  20.861   9.784   1.359  0.1202  0.1081  0.0479
    1W        W42912  20.679   5.034   0.622 -0.0401  0.2147 -0.2430
    1W        W42913  16.821  22.195   0.245  0.2475  0.1606 -0.1417
    1W        W42914   9.829  28.380   2.906  0.3124  0.2078  0.3890
    1W        W42915  22.642   2.728   6.892 -0.0869  0.1208  0.0136
    1W        W42916  24.370  27.265   2.743 -0.2003  0.0098  0.2011
    1W        W42917  21.745  28.727   6.913  0.2735 -0.2206 -0.1607
    1W        W42918  16.749  14.941   1.232 -0.0242 -0.0815 -0.3512
    1W        W42919  20.548   4.397   1.744 -0.2505  0.0414 -0.1364
    1W        W42920  13.723  22.072   9.388  0.0815 -0.0416  0.2181
    1W        W42921  12.564  25.485   0.672  0.3449 -0.2828 -0.1062
    1W        W42922  20.772   8.619   2.456 -0.2459  0.1022 -0.0148
    1W        W42923  26.331  21.562   0.043  0.1870 -0.3864  0.1139
    1W        W42924  13.753  19.516   7.706 -0.1399 -0.1817  0.1455
    1W        W42925  27.712   8.840   0.953  0.2406  0.1265  0.2986
    1W        W42926   0.180   3.006   8.294  0.1269  0.0547 -0.2052
    1W        W42927  24.578  11.939   7.460  0.2665 -0.2245  0.2145
    1W        W42928  11.991   4.084   2.543 -0.4484  0.1080  0.0420
    1W        W42929   0.277  20.003   6.280 -0.1312  0.2126 -0.0214
    1W        W42930  26.088   2.045   0.003  0.2742 -0.0426  0.1316
    1W        W42931  13.119  12.746   1.720 -0.1416 -0.1513 -0.2289
    1W        W42932   8.148   8.752   2.230  0.0740  0.0340 -0.1274
    1W        W42933   8.801   5.845   9.054 -0.1201  0.1355 -0.1240
    1W        W42934   6.093  28.345   9.202  0.1899 -0.1435 -0.1615
    1W        W42935   3.339  11.930   7.007  0.2156  0.0675 -0.2400
    1W        W42936  10.928  11.060   2.844 -0.1154 -0.1317  0.0070
    1W        W42937  16.818   4.417   9.212 -0.1237 -0.0832  0.4775
    1W        W42938  10.473   5.668   0.762 -0.1776  0.0581 -0.0194
    1W        W42939   0.604   1.970   8.581 -0.4257  0.2996  0.0877
    1W        W42940   3.005   4.098   1.623  0.1252 -0.0013  0.0814
    1W        W42941  10.882  11.186   7.921  0.0732 -0.0878  0.0672
    1W        W42942  24.497   7.172   0.967  0.0006 -0.5033  0.4683
    1W        W42943  15.373  20.405   1.972  0.0891  0.1696 -0.0055
    1W        W42944  10.263  18.600   0.936  0.4682  0.3794  0.0188
    1W        W42945  28.198   1.681   7.396 -0.0839  0.4251 -0.1844
    1W        W42946  15.422   7.160   9.055 -0.2357  0.0818 -0.0886
    1W        W42947  12.278   2.151   1.492 -0.4526 -0.1875  0.3985
    1W        W42948   0.663  14.212   7.737 -0.0412 -0.0742 -0.4444
    1W        W42949   0.783  26.173   8.532 -0.0841 -0.2850 -0.1191
    1W        W42950  23.227  20.120   9.429  0.0434 -0.1051  0.3922
    1W        W42951  29.319  24.412   0.265  0.1647 -0.0929 -0.1962
    1W        W42952  22.488  13.681   8.351 -0.1667  0.2388 -0.1063
    1W        W42953  12.282   1.406   1.018 -0.1437 -0.0762  0.3305
    1W        W42954  16.360   1.930   1.414 -0.3612  0.2060  0.0084
    1W        W42955   5.230  21.470   9.414 -0.2345  0.0050 -0.1550
    1W        W42956  20.668  27.422   3.144  0.2448 -0.0803 -0.0269
    1W        W42957  14.955  15.701   9.300 -0.0740  0.0755 -0.0512
    1W        W42958  21.046   9.633   7.284 -0.1239  0.1833  0.0362
    1W        W42959   8.198  24.658   6.683  0.2135  0.1077 -0.0033
    1W        W42960  18.461  13.740   1.653  0.0032 -0.3481  0.2331
    1W        W42961   6.489  17.857   1.955  0.1792  0.0996  0.2556
    1W        W42962  17.069   4.658   2.014 -0.0867  0.0155 -0.2282
    1W        W42963  22.050  20.727   3.728 -0.0845  0.1238  0.2446
    1W        W42964  14.240   5.593   0.208  0.0361  0.1244  0.0197
    1W        W42965   7.096   3.295   8.905 -0.0826 -0.1849  0.0591
    1W        W42966  17.599  18.935   1.343 -0.1812  0.3895 -0.1305
    1W        W42967  17.686  13.631   9.020  0.3536 -0.0331  0.0542
    1W        W42968  25.767   1.001   7.119 -0.1162 -0.0384  0.1244
    1W        W42969  18.400   7.205   9.329  0.2746  0.0595 -0.1706
    1W        W42970  25.499  21.689   9.602 -0.1141 -0.2203 -0.1590
    1W        W42971   1.881   9.413   9.644  0.1176 -0.1723  0.0184
    1W        W42972  27.891  29.097   9.056 -0.1716  0.0771  0.2063
    1W        W42973  26.556  21.516   1.948 -0.0227  0.2305 -0.1237
    1W        W42974   5.271  20.894   1.532  0.0648 -0.0070 -0.0464
    1W        W42975  26.935  27.395   3.392  0.0514  0.1950 -0.2580
    1W        W42976  23.854   2.798   1.230  0.3000  0.3572  0.0481
    1W        W42977  28.868  19.401   6.111  0.0867 -0.0737  0.1411
    1W        W42978   5.358   4.683   0.000  0.2210  0.0191  0.0574
    1W        W42979  20.963   4.368   7.768 -0.0689  0.1145 -0.0021
    1W        W42980  23.524  22.762   0.494 -0.2363  0.0481 -0.1615
    1W        W42981   7.962  19.815   2.229 -0.2972 -0.1364 -0.0537
    1W        W42982  28.103  12.160   0.546  0.2731 -0.1898  0.2063
    1W        W42983  22.489  19.885   3.390 -0.1269 -0.1825 -0.2340
    1W        W42984   0.584  12.035   8.820 -0.0609  0.4512 -0.1329
    1W        W42985  12.250  19.024   8.537 -0.1735  0.0391 -0.3050
    1W        W42986  21.296  12.595   6.790  0.2774 -0.0492 -0.0308
    1W        W42987   5.812   1.220   6.561 -0.2425 -0.2036 -0.0892
    1W        W42988  28.380  29.236   1.798  0.1952 -0.2159 -0.0193
    1W        W42989  13.106  11.079   1.559 -0.2362  0.0817 -0.0105
    1W        W42990  20.234  10.087   2.034  0.0236 -0.1541  0.2980
    1W        W42991  27.971  17.084   1.892  0.0483 -0.1164 -0.0042
    1W        W42992  24.457  13.131   6.645 -0.0949  0.1171 -0.0621
    1W        W42993   7.545   0.935   1.860  0.0634  0.0937 -0.3035
    1W        W42994  28.236  10.100   7.919 -0.0371  0.0768  0.2190
    1W        W42995  20.426  25.866   3.132 -0.0263  0.2768  0.0819
    1W        W42996  28.053  12.038   8.885  0.3292  0.0638  0.0375
    1W        W42997  11.305  13.487   0.248 -0.0335  0.1213  0.5333
    1W        W42998  18.816   1.842   8.309  0.0589  0.1138  0.1157
    1W        W42999  15.602  17.249   2.316 -0.0781 -0.3857  0.1631
    1W        W43000  12.444  21.981   9.224 -0.0555  0.1243  0.2525
    1W        W43001  18.529  14.417   0.843 -0.0788 -0.2675 -0.1668
    1W        W43002   1.727  26.148   2.448  0.2777 -0.0029 -0.1194
    1W        W43003  26.684  14.894   1.350 -0.1169  0.1598  0.3344
    1W        W43004  26.550  17.310   6.348 -0.1821  0.0967 -0.2672
    1W        W43005  16.783  27.002   3.634  0.0793 -0.1219 -0.3194
    1W        W43006  27.491   1.844   2.519  0.0622  0.2878  0.0359
    1W        W43007  13.586   5.363   2.260 -0.1074 -0.2988 -0.0719
    1W        W43008  22.649   1.168   0.506 -0.1027 -0.3103  0.1384
    1W        W43009   2.517  19.606   0.542 -0.0820  0.1090 -0.1580
    1W        W43010  10.279  25.805   7.404 -0.1618 -0.0622 -0.0038
    1W        W43011  27.977  24.371   8.602  0.2095 -0.5111 -0.1002
    1W        W43012   7.733  11.079   8.218  0.0944  0.2906  0.1564
    1W        W43013   2.591  27.188   9.125 -0.2520  0.0286 -0.0168
    1W        W43014  21.737  12.319   8.628  0.1715 -0.1271 -0.1952
    1W        W43015  13.675   9.874   8.728 -0.1202 -0.3235  0.0519
    1W        W43016  22.185  19.882   1.228 -0.1893 -0.0944 -0.2553
    1W        W43017   0.775   7.959   9.331  0.1231 -0.1283 -0.1963
    1W        W43018   7.510  18.040   6.397 -0.0117  0.1333 -0.1024
    1W        W43019  11.249   1.392   1.207 -0.1727  0.1253  0.1718
    1W        W43020   5.446   9.204   0.397 -0.2394 -0.0282  0.0581
    1W        W43021   8.935  25.078   6.398  0.0770  0.2879  0.0564
    1W        W43022  27.309  10.820   7.509  0.2593  0.2454 -0.1681
    1W        W43023  18.639  19.545   9.497  0.1356  0.2919  0.3429
    1W        W43024  18.570  10.284   8.447 -0.3140 -0.2988 -0.0674
    1W        W43025  13.121   8.791   1.822  0.0247 -0.0726 -0.1751
    1W        W43026   3.328  13.978   7.300 -0.2591  0.1297 -0.0638
    1W        W43027  26.793  23.112   6.660  0.3581 -0.2508  0.1696
    1W        W43028   8.967  20.768   0.370 -0.1667  0.3132  0.0119
    1W        W43029   9.592   5.511   7.631 -0.3646  0.0638  0.1680
    1W        W43030   7.807   4.093   2.070 -0.2629 -0.0132  0.4583
    1W        W43031   0.254   8.177   2.203 -0.4287  0.0584  0.1251
    1W        W43032  27.067   0.357   6.803 -0.0511 -0.2133  0.2133
    1W        W43033   6.982  20.538   8.026 -0.1722  0.6059 -0.1376
    1W        W43034  13.853   1.569   3.903 -0.0177 -0.0063  0.0939
    1W        W43035  20.531  11.925   8.240 -0.1188  0.4224  0.0734
    1W        W43036   7.912  28.020   7.554 -0.2278  0.1591 -0.0393
    1W        W43037  28.863  27.785   2.255 -0.0199  0.0258 -0.4078
    1W        W43038   1.486  24.831   0.170 -0.1583 -0.1145 -0.1176
    1W        W43039  27.041  11.593   1.336 -0.0757 -0.0024 -0.3675
    1W        W43040   8.613  24.095   9.654 -0.1461 -0.0547  0.0844
    1W        W43041   3.366  13.067   0.932  0.1914 -0.0589  0.0767
    1W        W43042  19.038   1.281   7.475  0.3961 -0.1407 -0.3046
    1W        W43043   2.427   1.234   8.030  0.1921  0.1867 -0.2318
    1W        W43044  27.805   1.818   0.507 -0.0173 -0.1484  0.0524
    1W        W43045  25.958  14.322   8.076 -0.3199  0.2424 -0.0061
    1W        W43046  13.876   3.904   8.708  0.1960  0.1854  0.0128
    1W        W43047  10.182   4.595   1.049 -0.1603 -0.1222 -0.0289
    1W        W43048  16.371  25.473   8.279 -0.0057  0.0075  0.3147
    1W        W43049  28.228   2.132   7.163 -0.0394  0.1738  0.0611
    1W        W43050  21.477  28.569   1.668 -0.0772  0.2377 -0.2302
    1W        W43051  26.255  20.832   2.309 -0.1962 -0.0971  0.0572
    1W        W43052  15.139   9.287   1.477 -0.1594  0.0565  0.2068
    1W        W43053   6.787   8.687   0.209  0.1558  0.0965  0.0251
    1W        W43054   3.889  21.576   8.201  0.0283 -0.0825 -0.0755
    1W        W43055  14.028  17.799   1.427  0.2948 -0.1150 -0.0886
    1W        W43056  13.266  27.206   2.779  0.0749 -0.1306 -0.0609
    1W        W43057  18.795  22.587   6.910  0.0071 -0.0592 -0.1426
    1W        W43058  24.169  10.221   0.917 -0.1996 -0.0085 -0.0670
    1W        W43059   0.474  21.555   6.639  0.2326 -0.2161 -0.0721
    1W        W43060   0.442   3.730   0.369  0.0942 -0.2769 -0.0422
    1W        W43061  10.695  12.526   9.662 -0.0705 -0.0296 -0.1065
    1W        W43062  11.956   0.802   9.594 -0.1655  0.2377 -0.1054
    1W        W43063  17.151   8.073   1.215 -0.1346  0.1733 -0.1217
    1W        W43064  25.827   4.243   7.696  0.0830  0.0510  0.0302
    1W        W43065  14.417  15.486   8.131  0.1053 -0.0723 -0.1939
    1W        W43066  27.145   4.098   0.765 -0.2318  0.1508  0.0388
    1W        W43067  23.723   3.653   2.790  0.0185  0.0890  0.2127
    1W        W43068   6.959  17.402   1.305  0.0140  0.1581  0.0004
    1W        W43069  25.425  10.522   0.635  0.1661 -0.1214  0.0830
    1W        W43070   8.870   2.496   0.797 -0.3322  0.3010  0.2318
    1W        W43071  24.198   1.990   7.407  0.3131 -0.0603 -0.3359
    1W        W43072   5.950  27.974   2.315  0.1399  0.1806 -0.0017
    1W        W43073   3.344   7.743   8.647 -0.0278  0.2516 -0.0544
    1W        W43074  23.939  27.105   1.589  0.0977 -0.0074 -0.1426
    1W        W43075   4.710  10.004   9.285  0.0839 -0.0807 -0.0682
    1W        W43076   8.477  17.791   0.702 -0.2936  0.1655  0.1893
    1W        W43077  13.264  11.682   0.373 -0.0232  0.3201 -0.0693
    1W        W43078   4.053  10.689   6.895  0.0704 -0.3997  0.0255
    1W        W43079   2.929   4.353   0.431  0.0266 -0.1152  0.3054
    1W        W43080  13.538  29.043   2.967 -0.2033  0.1048 -0.2344
    1W        W43081   6.033   4.689   8.321 -0.2226 -0.0812 -0.3344
    1W        W43082  26.867  28.939   1.810 -0.2815 -0.1106  0.3877
    1W        W43083  20.363  11.507   1.172  0.1235  0.2659 -0.0680
    1W        W43084  26.991  10.675   2.406 -0.0147 -0.1220 -0.0451
    1W        W43085  26.428  20.059   1.075 -0.0603 -0.0092 -0.0248
    1W        W43086  17.697  25.990   8.908  0.1503 -0.2030  0.0477
    1W        W43087   0.468  12.490   0.401 -0.2253 -0.3464  0.1410
    1W        W43088   2.353  17.708   6.743  0.1571 -0.0389  0.1440
    1W        W43089  13.166   8.263   8.756  0.0789 -0.2040  0.2077
    1W        W43090  10.478   3.705   3.260  0.1326  0.0711 -0.0231
    1W        W43091  19.990   5.153   8.316 -0.3147  0.0765 -0.2040
    1W        W43092   7.332  16.435   8.318 -0.1314  0.3541  0.0663
    1W        W43093  22.065  25.419   0.675  0.1939  0.0831 -0.3714
    1W        W43094   0.312   2.189   9.408  0.1462 -0.3041  0.0450
    1W        W43095  13.192  28.480   9.383 -0.1225  0.3305  0.1554
    1W        W43096  17.976  19.718   1.261  0.0920  0.0538  0.3361
    1W        W43097  11.807   2.238   1.273  0.3592 -0.4358 -0.0427
    1W        W43098   0.536  13.769   8.332  0.2636 -0.2934 -0.1127
    1W        W43099  26.433  21.294   0.971  0.0214  0.1434  0.0624
    1W        W43100  17.042  14.235   0.318 -0.0317  0.0424 -0.1178
    1W        W43101  15.903  20.571   1.958 -0.1458 -0.4625  0.1564
    1W        W43102   7.514   2.988   3.268  0.0490 -0.1237  0.2493
    1W        W43103   8.192  23.990   6.577 -0.2325 -0.1414  0.0003
    1W        W43104   1.376  24.516   7.197  0.2268  0.3636 -0.2262
    1W        W43105   2.010  23.011   6.933  0.1068 -0.0760  0.0646
    1W        W43106   6.156  17.437   8.679 -0.2381 -0.2226  0.1361
    1W        W43107   7.120  19.364   8.963  0.2020 -0.0522 -0.2421
    1W        W43108   3.415   1.772   7.191  0.0969 -0.0456  0.2542
    1W        W43109  10.470  26.321   7.100  0.0637  0.2928  0.0513
    1W        W43110  26.756  25.530   8.605 -0.1312  0.1888 -0.1021
    1W        W43111  26.996  27.844   3.615 -0.3624 -0.1315  0.0653
    1W        W43112  25.892   2.529   8.809  0.1657  0.1948 -0.1554
    1W        W43113  26.536  24.744   6.417  0.0674  0.1010  0.2581
    1W        W43114  19.227  16.980   0.629 -0.3163 -0.2758  0.1279
    1W        W43115   7.964   3.599   8.808 -0.0532  0.1248 -0.0674
    1W        W43116  16.702  27.151   9.690 -0.0538  0.3267 -0.0557
    1W        W43117  22.372  13.548   2.089  0.1652  0.2958  0.3334
    1W        W43118  23.335  12.620   6.009 -0.2783  0.0423  0.0009
    1W        W43119   6.683   1.203   9.184  0.0546 -0.4093  0.1086
    1W        W43120  19.320  24.209   1.401  0.0865 -0.1066  0.0208
    1W        W43121  16.621   4.125   2.920 -0.2081  0.1572 -0.3132
    1W        W43122  18.261  21.991   1.511 -0.2632 -0.0989  0.1141
    1W        W43123  27.362  21.136   1.375 -0.2092  0.1891 -0.1878
    1W        W43124  13.947  22.659   9.295  0.2522 -0.1866  0.0135
    1W        W43125  25.465  22.202   6.882 -0.0005 -0.0281 -0.2229
    1W        W43126  22.866   2.062   7.295 -0.1695 -0.0167  0.1051
    1W        W43127   6.987  24.711   0.102 -0.1856  0.1067 -0.1745
    1W        W43128  22.360  18.254   8.824 -0.1315 -0.1375  0.2118
    1W        W43129   5.965  24.703   9.105  0.1909 -0.1199  0.0331
    1W        W43130  17.772  13.094   9.086  0.0068 -0.1745  0.2539
    1W        W43131   8.708  21.985   1.807 -0.0486  0.0903  0.3074
    1W        W43132   4.382  18.055   3.006  0.0843  0.1125  0.0014
    1W        W43133  23.720   5.866   8.234 -0.0732 -0.1340 -0.3425
    1W        W43134  16.325   3.782   2.726  0.3256  0.1372  0.2040
    1W        W43135  29.042   2.611   7.712  0.2588 -0.2474  0.0035
    1W        W43136  14.411  27.106   8.629 -0.0734  0.1231  0.0383
    1W        W43137  12.575   8.595   2.409  0.1735 -0.1032  0.0450
    1W        W43138   8.169   7.149   1.759 -0.2871 -0.0655  0.0599
    1W        W43139   5.861   0.803   0.549 -0.0784 -0.2331 -0.0913
    1W        W43140  12.985  26.801   3.538  0.0943 -0.1272 -0.2958
    1W        W43141  14.961  28.120   9.465  0.2195  0.1466 -0.0323
    1W        W43142  17.242  19.454   2.574 -0.1827  0.2489  0.0801
    1W        W43143   7.655   2.378   9.144 -0.0023  0.0221  0.3376
    1W        W43144  19.274  28.675   1.581  0.0818 -0.0990  0.0537
    1W        W43145   2.170   5.536   7.783 -0.0570 -0.1399  0.2307
    1W        W43146  24.621  14.564   7.077  0.0424  0.0670  0.0609
    1W        W43147   3.886   6.518   6.638 -0.1441  0.1750 -0.0379
    1W        W43148  20.626   6.423   0.955  0.0102 -0.1039 -0.0547
    1W        W43149  19.350  19.146   9.044  0.1428 -0.4017 -0.0457
    1W        W43150  11.601   1.305   1.635 -0.1894 -0.0697  0.1552
    1W        W43151  27.487  13.347   1.171  0.1290 -0.1115  0.2825
    1W        W43152   0.022  16.428   9.237 -0.2454 -0.0154 -0.0543
    1W        W43153   3.713   3.130   2.025 -0.4583  0.2403 -0.2291
    1W        W43154   4.043  11.339   9.590 -0.3812 -0.0552 -0.2429
    1W        W43155  20.332  17.498   2.386 -0.2685 -0.1603  0.0565
    1W        W43156   0.955  20.157   8.778 -0.0874 -0.0441  0.0179
    1W        W43157   1.608   2.379   8.084  0.2652  0.1600  0.0982
    1W        W43158  28.220  10.818   1.070 -0.2297 -0.1032  0.0589
    1W        W43159   8.754   6.008   7.295  0.1774  0.0966 -0.2460
    1W        W43160  27.200  15.923   7.416  0.0315 -0.2069 -0.1087
    1W        W43161  12.050   6.685   3.386 -0.0152 -0.2337  0.2108
    1W        W43162  25.553  18.444   6.620 -0.2578  0.0092 -0.0677
    1W        W43163  27.074  24.518   8.865  0.0963  0.0887  0.0284
    1W        W43164  25.248  23.205   9.341 -0.0269 -0.1595  0.3091
    1W        W43165  17.247  28.151   8.863 -0.1890  0.2324  0.0477
    1W        W43166  12.838  28.200   9.549  0.1237 -0.0043 -0.2161
    1W        W43167   7.519   7.988   2.802 -0.4523  0.3972  0.3461
    1W        W43168   5.917  23.828   9.315  0.0630 -0.0878 -0.0266
    1W        W43169  26.621  20.566   2.041  0.3036  0.1791  0.0170
    1W        W43170  15.759  12.485   7.437  0.0789 -0.1430  0.0589
    1W        W43171  28.925   8.040   2.476 -0.1499 -0.1158  0.0596
    1W        W43172  19.579  16.689   7.000 -0.0730  0.2100 -0.0150
    1W        W43173  29.213  13.000   0.458 -0.1253 -0.5300  0.1399
    1W        W43174  12.184   9.151   2.872 -0.0131 -0.1623  0.2248
    1W        W43175   9.497  27.841   0.103 -0.1298 -0.1349 -0.0125
    1W        W43176  13.357  25.970   8.876  0.2830 -0.3230 -0.2108
    1W        W43177  27.620  24.198   7.809 -0.1166  0.1174 -0.5237
    1W        W43178   9.607  24.114   7.217 -0.0399  0.1085  0.1212
    1W        W43179   3.880  11.288   2.079  0.1586 -0.1464  0.0540
    1W        W43180  24.011  20.129   2.356 -0.1227  0.2249 -0.0292
    1W        W43181   0.341  28.957   3.064  0.0757  0.1837  0.1770
    1W        W43182  12.902   3.941   8.933  0.0341 -0.1641  0.0184
    1W        W43183  10.389  13.497   1.796 -0.0048  0.0847  0.2461
    1W        W43184  13.681  27.894   1.907 -0.0689 -0.0920  0.2590
    1W        W43185   9.338  15.169   0.565  0.3029 -0.3050  0.1171
    1W        W43186  12.139  16.445   9.111 -0.1683 -0.0830 -0.0568
    1W        W43187   6.816  13.861   8.109  0.0405 -0.1399  0.2770
    1W        W43188  17.833  13.772   2.675 -0.0786  0.2750  0.0452
    1W        W43189  18.543  26.437   0.129 -0.1670 -0.1583  0.1654
    1W        W43190  11.926   3.829   2.116 -0.3387  0.1175 -0.0069
    1W        W43191   1.230   8.827   1.908 -0.2593  0.0429  0.0933
    1W        W43192  17.267   0.499   8.380 -0.0007 -0.0462 -0.0887
    1W        W43193  13.246   4.057   7.147  0.2434  0.0102 -0.0004
    1W        W43194   1.954  19.008   8.622  0.2486 -0.4585 -0.0967
    1W        W43195  11.079   6.366   0.240 -0.3642 -0.1499 -0.1356
    1W        W43196   6.461  26.575   1.489 -0.1170 -0.0359 -0.2322
    1W        W43197  17.148  19.517   9.631 -0.2163  0.1417  0.0322
    1W        W43198   7.709  15.582   7.246 -0.0449 -0.1348 -0.0450
    1W        W43199  21.478  23.598   9.534 -0.3021 -0.0166 -0.1966
    1W        W43200   0.690   8.070   0.959 -0.3483 -0.0152  0.0813
    1W        W43201   3.802   5.068   2.810  0.1308  0.1171 -0.1246
    1W        W43202  25.696  19.988   8.715  0.0210  0.1404  0.3056
    1W        W43203   0.798   5.789   1.770 -0.0880  0.3566  0.2288
    1W        W43204  27.963   0.906   7.886  0.1148 -0.1221  0.1548
    1W        W43205   9.503  26.307   1.258  0.1511  0.1135 -0.2019
    1W        W43206  20.471   5.728   3.102  0.2490  0.3726 -0.0281
    1W        W43207   0.485  11.978   2.274  0.2210 -0.2515 -0.0222
    1W        W43208   8.751  20.061   1.516 -0.1726 -0.0583  0.2796
    1W        W43209  10.048   4.265   8.988  0.0893  0.1526  0.0562
    1W        W43210   3.847  13.759   8.745 -0.2934  0.2423  0.0029
    1W        W43211  12.813  19.985   9.219 -0.4958  0.3906 -0.1164
    1W        W43212  19.654   7.038   3.333  0.1383  0.3407 -0.0745
    1W        W43213  19.993   0.555   8.697 -0.1957  0.0383  0.2193
    1W        W43214   5.295  19.927   9.185 -0.1439 -0.0154 -0.1803
    1W        W43215  17.370  24.505   2.841 -0.2338  0.0732  0.1008
    1W        W43216  12.002  24.529   0.358 -0.2429 -0.0999  0.0424
    1W        W43217  17.115  27.383   0.150  0.1418 -0.1673  0.1200
    1W        W43218  22.056   9.543   2.821 -0.0577 -0.1530 -0.0942
    1W        W43219   4.743  10.387   0.020  0.0786  0.2348  0.3955
    1W        W43220  23.215  21.394   7.658 -0.1659  0.0627  0.0113
    1W        W43221  19.720  27.292   9.673  0.3392  0.0626 -0.1347
    1W        W43222  16.651  14.611   9.185 -0.1798  0.7034 -0.3137
    1W        W43223  10.867   4.590   2.947  0.2873  0.1064 -0.1503
    1W        W43224  22.939  27.243   6.440 -0.0400  0.1032 -0.0789
    1W        W43225   8.562  27.313   8.186  0.1163  0.1684  0.1201
    1W        W43226  25.905   0.353   7.043  0.1313  0.1877  0.1013
    1W        W43227  24.774   4.474   5.772  0.0449 -0.0571  0.1303
    1W        W43228  12.958  20.704   2.276  0.2512  0.1749 -0.2507
    1W        W43229   6.725   6.898   0.822  0.0545 -0.2655 -0.1396
    1W        W43230  13.772  10.770   7.686 -0.1765 -0.1939  0.0971
    1W        W43231   4.813   5.025   0.759  0.1644 -0.2056  0.0649
    1W        W43232  19.481  27.689   1.576 -0.2625  0.1152 -0.0695
    1W        W43233   3.736  26.054   9.559 -0.1538  0.0166 -0.0733
    1W        W43234  26.863   4.139   8.982  0.1208  0.3065 -0.0481
    1W        W43235  25.812  17.719   0.337 -0.3729  0.2320 -0.0285
    1W        W43236   2.055  18.272   9.157 -0.0685 -0.0385  0.3221
    1W        W43237  24.100  16.357   9.322 -0.0470 -0.1265 -0.0678
    1W        W43238  20.295  18.352   8.578  0.0657 -0.1873 -0.4372
    1W        W43239   4.357   5.470   2.172 -0.1587 -0.0295  0.2804
    1W        W43240  16.823   6.805   3.399  0.0255 -0.0201  0.2227
    1W        W43241   2.515  29.330   1.222 -0.3060  0.1141  0.2158
    1W        W43242  27.186  20.063   9.447  0.1051 -0.2333 -0.1251
    1W        W43243  28.269  24.046   8.917  0.0371  0.0983 -0.2783
    1W        W43244  10.196  19.746   1.171 -0.1740 -0.0380  0.1823
    1W        W43245   7.841  11.524   7.782 -0.4134  0.0050  0.0544
    1W        W43246   3.157  13.999   7.813  0.1307  0.2028  0.0149
    1W        W43247  11.431   7.778   8.592 -0.0462  0.1825 -0.2998
    1W        W43248   7.361  14.089   8.730 -0.3761 -0.2269  0.0731
    1W        W43249  15.936  29.276   9.179  0.2665 -0.2050 -0.0918
    1W        W43250  15.738   6.737   9.486  0.1212 -0.0105 -0.3109
    1W        W43251  19.925   6.095   8.164 -0.0713  0.1895  0.2227
    1W        W43252   0.465  12.504   2.250 -0.2161  0.0269  0.0632
    1W        W43253   4.748  11.254   7.528  0.2400  0.1592  0.2109
    1W        W43254  16.290  15.872   8.763  0.3534 -0.0336  0.0021
    1W        W43255   1.206  22.982   1.549 -0.2952 -0.3592 -0.1919
    1W        W43256   6.277   6.883   2.402 -0.1379 -0.2115  0.4571
    1W        W43257  17.640   3.239   0.611 -0.2421  0.2922  0.1702
    1W        W43258  17.969  25.644   2.747 -0.3998 -0.2136 -0.1483
    1W        W43259  28.842  26.160   3.378 -0.0976 -0.1698  0.2207
    1W        W43260  24.529   1.325   1.103 -0.1788 -0.3624  0.0470
    1W        W43261  15.945  17.957   1.351  0.1031 -0.3178 -0.1742
    1W        W43262  11.962  11.897   7.436 -0.2394 -0.2217  0.0809
    1W        W43263  15.479  26.789   9.516 -0.2322 -0.0626  0.1325
    1W        W43264  12.288   8.768   7.408  0.1223 -0.0360  0.2056
    1W        W43265  23.405   9.060   9.410  0.0139  0.0075 -0.2607
    1W        W43266  11.335  19.756   8.807  0.1527 -0.0569  0.0669
    1W        W43267  21.138  25.404   1.167  0.0923 -0.1930  0.1937
    1W        W43268   9.456  16.272   7.578 -0.1055 -0.1451 -0.0255
    1W        W43269   0.464  18.342   2.897 -0.2856 -0.1223 -0.0404
    1W        W43270   4.602   5.409   7.349  0.0113  0.1329  0.0933
    1W        W43271  13.913  24.492   2.587 -0.1138  0.1187  0.0006
    1W        W43272   0.156  14.121   7.483 -0.0113 -0.0484  0.0722
    1W        W43273  25.733   3.652   0.036 -0.1437  0.3470 -0.0534
    1W        W43274  20.350  20.896   0.991 -0.0297 -0.0158 -0.0074
    1W        W43275  20.035  15.602   0.707  0.1380  0.2120  0.2651
    1W        W43276  11.486  19.337   1.698  0.2618 -0.2870  0.1702
    1W        W43277   5.908   4.216   0.342 -0.1351 -0.1948  0.0018
    1W        W43278  17.123  25.781   2.097  0.0681  0.1981 -0.0822
    1W        W43279   7.972   4.219   9.426 -0.2623  0.0370 -0.1341
    1W        W43280  28.609  28.130   3.186  0.2117 -0.0322 -0.3246
    1W        W43281   3.992  13.319   2.535  0.0269  0.2661  0.2572
    1W        W43282  12.278  25.243   9.429 -0.1625 -0.2312  0.1506
    1W        W43283  25.349  15.028   7.708 -0.0104 -0.0243 -0.0036
    1W        W43284  17.153  26.585   7.378 -0.0836  0.0086 -0.0956
    1W        W43285   3.162  14.318   1.456 -0.1127  0.0278 -0.2168
    1W        W43286   9.506  11.860   1.272 -0.1583  0.2575 -0.1970
    1W        W43287  21.515  21.869   6.083  0.0323 -0.0690 -0.0828
    1W        W43288  23.755   5.012   2.665  0.4603 -0.0198  0.0786
    1W        W43289  16.919  28.551   3.101 -0.1403  0.1332  0.2733
    1W        W43290  16.593  25.231   7.672 -0.1796 -0.0260 -0.0433
    1W        W43291  23.205  27.508   1.886  0.1928  0.3170 -0.0278
    1W        W43292  26.182   0.794   2.307  0.0366  0.2034 -0.1238
    1W        W43293  19.010   5.276   0.923  0.1313  0.1363  0.0434
    1W        W43294  26.961  27.969   3.044  0.0675 -0.0869  0.0092
    1W        W43295  14.846  19.702   9.454  0.1334  0.2559 -0.2439
    1W        W43296   1.170  16.679   8.043 -0.1537 -0.0672 -0.2357
    1W        W43297  24.322  25.912   1.210 -0.0724  0.2926 -0.2119
    1W        W43298  20.621  16.499   8.784  0.0882 -0.2013 -0.0026
    1W        W43299  22.001   3.050   7.526 -0.0337  0.1545 -0.0005
    1W        W43300   3.526   6.742   9.412  0.0876  0.0238  0.1327
    1W        W43301   1.244  22.132   0.230  0.1356 -0.0362 -0.0465
    1W        W43302   7.042   0.815   0.411  0.0174 -0.0877  0.1102
    1W        W43303  18.957  12.114   0.354  0.0602 -0.5281 -0.0962
    1W        W43304   5.760  22.545   6.121  0.2609 -0.0501 -0.2289
    1W        W43305   1.090  18.817   0.190 -0.0962 -0.1040  0.0306
    1W        W43306   5.477   9.848   6.817 -0.3443 -0.0395  0.3191
    1W        W43307  16.689  25.627   7.426  0.1165 -0.4385 -0.0787
    1W        W43308   0.580   5.690   2.364 -0.4259  0.0762  0.0318
    1W        W43309   7.164  13.214   8.242  0.1616 -0.0553  0.2257
    1W        W43310  25.310   5.888   0.048  0.0121  0.0664 -0.2906
    1W        W43311  11.496  10.473   2.560  0.0287 -0.1870 -0.0332
    1W        W43312   5.745   6.228   2.052  0.1394 -0.1953 -0.2175
    1W        W43313  12.688  19.687   1.996 -0.0266  0.3984  0.1088
    1W        W43314  25.963  21.906   2.352  0.1955  0.2143 -0.2592
    1W        W43315  22.726  25.848   8.113 -0.0577  0.3260  0.0120
    1W        W43316  23.770  25.021   2.396  0.3554  0.2408  0.1983
    1W        W43317   5.100   8.562   9.518  0.3571  0.1497 -0.2753
    1W        W43318   7.258   5.995   6.801 -0.1566  0.0294 -0.3133
    1W        W43319   0.631  10.181   0.004 -0.1746 -0.2347 -0.2165
    1W        W43320  11.713  22.180   6.533  0.0819  0.0255 -0.1677
    1W        W43321  24.750   0.771   6.822 -0.1093 -0.3019 -0.0474
    1W        W43322  17.842   9.730   7.738 -0.3581  0.4182 -0.0580
    1W        W43323   6.770  17.417   0.343 -0.2328 -0.0026 -0.2542
    1W        W43324   4.926  27.310   1.810 -0.0493  0.3607 -0.1709
    1W        W43325  14.439  12.133   9.121 -0.1917 -0.2367  0.1040
    1W        W43326   9.834   5.114   9.458  0.0102 -0.1352  0.0948
    1W        W43327  18.287  11.502   9.322 -0.0186 -0.0476  0.0816
    1W        W43328  10.535  13.175   0.063 -0.1843  0.3251  0.0867
    1W        W43329  24.864  19.977   2.317  0.1729  0.0647 -0.0153
    1W        W43330   3.590  26.437   1.222  0.2206  0.1234  0.1703
    1W        W43331  24.089   4.624   7.985 -0.3166  0.4779 -0.0049
    1W        W43332  26.053  15.154   5.379  0.0786  0.0203  0.0463
    1W        W43333   6.737  20.097   0.786  0.2237 -0.1491 -0.2746
    1W        W43334   2.123  19.640   0.141 -0.2367 -0.2014  0.2174
    1W        W43335  28.168  12.518   1.185  0.0726  0.1185  0.2173
    1W        W43336   9.800  20.718   2.185  0.0383 -0.0282  0.4051
    1W        W43337  16.813   7.023   9.388 -0.1601 -0.2447 -0.1303
    1W        W43338  20.355  26.193   2.766 -0.1827 -0.0364 -0.1390
    1W        W43339  21.049   7.574   9.204 -0.0166  0.0460  0.2456
    1W        W43340  28.736  20.368   7.692  0.1466  0.1789  0.1150
    1W        W43341   3.372   6.852   7.686  0.0463  0.1826 -0.0470
    1W        W43342   6.670  14.978   2.769 -0.1037 -0.1547 -0.0724
    1W        W43343  18.948   4.191   8.786 -0.1107 -0.0704 -0.0053
    1W        W43344  11.514   4.608   7.389 -0.0947  0.2094  0.2148
    1W        W43345   8.123  20.156   2.576 -0.0268  0.0109 -0.1967
    1W        W43346  10.870  24.014   7.293 -0.1884 -0.0660  0.1615
    1W        W43347   5.445   1.107   9.506 -0.0388 -0.3314 -0.3651
    1W        W43348  15.174   4.659   1.499  0.0548 -0.0651 -0.1383
    1W        W43349   8.986   3.526   8.168  0.0654  0.2607 -0.1910
    1W        W43350  29.091  11.924   7.807 -0.1275  0.1945  0.0539
    1W        W43351   8.934   9.857   1.350 -0.1616  0.1413  0.0659
    1W        W43352  16.396  20.426   0.598  0.0114 -0.1934 -0.0199
    1W        W43353  26.167  15.549   7.811 -0.0918 -0.1492 -0.0948
    1W        W43354  28.240   0.571   9.159 -0.1857 -0.0617  0.0837
    1W        W43355   7.054   3.594   8.435  0.2441 -0.0180 -0.1350
    1W        W43356  24.190   5.872   7.074 -0.0195  0.1170  0.2772
    1W        W43357   0.960   4.354   7.224 -0.2019 -0.0655 -0.2780
    1W        W43358  22.816   1.908   9.027  0.1419 -0.0499  0.2136
    1W        W43359   3.293   2.338   0.047  0.2256 -0.0306  0.0431
    1W        W43360  25.154  24.748   1.962  0.0811 -0.0714 -0.2313
    1W        W43361  14.485  16.399   9.657  0.3164  0.1342 -0.0914
    1W        W43362   1.861  11.281   0.674  0.1852  0.0602 -0.2581
    1W        W43363  11.738  23.820   6.756  0.1275 -0.0346  0.1898
    1W        W43364  18.508  12.566   2.064  0.4110  0.0628  0.0203
    1W        W43365   2.810  18.126   0.298 -0.0879  0.1180 -0.0652
    1W        W43366  15.383   1.936   7.932  0.0992 -0.1248 -0.0080
    1W        W43367  19.632  19.284   0.389  0.1609  0.2381 -0.0998
    1W        W43368   3.165  23.125   1.756  0.0390 -0.1469 -0.3141
    1W        W43369   8.764  22.969   7.305  0.0577  0.1550 -0.3601
    1W        W43370   7.423  19.268   9.341  0.0947 -0.0394 -0.0139
    1W        W43371   6.513   6.378   2.164 -0.0513 -0.0059  0.0083
    1W        W43372  15.556  17.620   9.452 -0.4321 -0.0438  0.1538
    1W        W43373   6.960  26.310   9.645 -0.2360  0.3499  0.2620
    1W        W43374   5.603   3.003   2.030 -0.3103 -0.0806  0.3500
    1W        W43375  28.634  17.323   2.262  0.2457 -0.3983  0.1555
    1W        W43376  22.877  25.195   3.053  0.0468  0.2802 -0.4359
    1W        W43377  26.638   2.576   1.115 -0.1474  0.1339  0.1468
    1W        W43378  22.894   0.497   1.535 -0.1465  0.1341  0.1651
    1W        W43379  23.161   8.661   0.872  0.1737 -0.0373  0.0858
    1W        W43380  27.757  16.915   8.857  0.5400 -0.0046 -0.0424
    1W        W43381  11.611   4.278   2.877  0.0049 -0.1394 -0.2126
    1W        W43382  23.101   4.841   8.742 -0.0815  0.0867 -0.5250
    1W        W43383  23.845  16.437   2.019  0.1664  0.0251 -0.2156
    1W        W43384   1.095  15.778   2.119 -0.0732  0.0371  0.0384
    1W        W43385  15.596  25.105   9.048 -0.0061 -0.1174 -0.3254
    1W        W43386  12.126   8.793   1.878  0.1389  0.1890 -0.1376
    1W        W43387  23.336  22.823   2.932  0.0011 -0.3367  0.1678
    1W        W43388   7.687  19.309   1.976  0.0507 -0.1563  0.3583
    1W        W43389  26.002  24.047   0.721  0.2180 -0.1651 -0.0507
    1W        W43390  20.718   7.180   2.710 -0.0731 -0.1129 -0.2315
    1W        W43391   2.493  16.755   7.854 -0.1729 -0.3238  0.2408
    1W        W43392  21.679   1.358   3.064 -0.1792 -0.3212 -0.0082
    1W        W43393  21.977   2.825   8.032  0.2449 -0.1881 -0.1393
    1W        W43394  18.949   2.157   8.661  0.1762  0.0106 -0.0709
    1W        W43395  19.746   2.812   1.403  0.1077 -0.0380 -0.1515
    1W        W43396  11.656  21.858   2.153  0.1184  0.1595  0.2059
    1W        W43397  21.839   2.992   8.496  0.0193 -0.0427  0.1316
    1W        W43398   3.700  29.241   5.922 -0.0064 -0.1695 -0.0463
    1W        W43399  20.406  12.657   2.472 -0.0819  0.3468  0.0598
    1W        W43400  27.270   2.837   6.476  0.1073  0.0447 -0.0719
    1W        W43401   2.070  22.131   0.420  0.0600 -0.2900 -0.1138
    1W        W43402  13.762  22.045   1.357  0.0354  0.0632  0.0730
    1W        W43403  23.336   9.398   0.289  0.0137 -0.0437  0.0157
    1W        W43404  14.628  19.255   7.277  0.0500 -0.0650  0.3219
    1W        W43405   0.026   7.420   0.685 -0.1034  0.3177  0.1763
    1W        W43406  18.712  17.956   0.559  0.1031  0.1400  0.0215
    1W        W43407   9.924   8.508   7.934  0.2127  0.0270  0.2731
    1W        W43408   8.738  22.959   8.674 -0.1332 -0.0614 -0.1069
    1W        W43409  11.412  23.047   0.646 -0.0805 -0.0580 -0.0591
    1W        W43410  14.537   2.430   7.287  0.0039  0.1895  0.0897
    1W        W43411  13.350  24.469   0.357 -0.1879 -0.0420  0.0389
    1W        W43412  25.165   9.801   0.668  0.1871  0.1308  0.1058
    1W        W43413   1.440   8.647   7.458  0.2369 -0.2695 -0.1494
    1W        W43414  19.037   4.007   2.442  0.1125  0.1765 -0.1107
    1W        W43415  23.234   1.527   8.011 -0.3472  0.3109 -0.1953
    1W        W43416   5.705  11.296   7.723  0.1241  0.0208 -0.0773
    1W        W43417  11.570  11.309   2.420 -0.0372  0.1983 -0.2372
    1W        W43418  27.036  24.507   9.678 -0.0385 -0.0238 -0.0259
    1W        W43419  16.999  10.141   0.601  0.0561  0.1921  0.0331
    1W        W43420  22.690  19.665   0.937 -0.1391  0.3062  0.1429
    1W        W43421  25.064  10.189   0.393  0.1362  0.0325  0.1355
    1W        W43422   1.351  14.855   7.561  0.0438  0.0882  0.1343
    1W        W43423  18.522   6.990   7.432  0.0991 -0.4118 -0.2421
    1W        W43424   1.705   5.934   0.871 -0.0393  0.0237 -0.0837
    1W        W43425   2.161  27.772   8.782  0.1437 -0.1183 -0.1139
    1W        W43426  28.528  26.609   0.896  0.3968  0.1250 -0.1163
    1W        W43427   8.184  11.351   6.457 -0.0614  0.4116 -0.1888
    1W        W43428  18.463   0.866   9.256  0.3459 -0.0504 -0.1400
    1W        W43429  20.606   8.178   6.492 -0.2156  0.1422  0.1848
    1W        W43430   8.269  28.185   0.488  0.1640  0.3873  0.3080
    1W        W43431  14.923   5.185   0.552  0.4088 -0.3830 -0.0490
    1W        W43432   0.568  29.299   3.491 -0.1682  0.1719  0.1925
    1W        W43433  26.002  15.111   7.619  0.1360 -0.1321  0.0432
    1W        W43434  26.189   3.500   8.971  0.1727  0.1213 -0.0274
    1W        W43435   0.395  15.142   1.145  0.0239  0.1246 -0.0683
    1W        W43436  17.477  20.485   8.006 -0.1930  0.0169  0.1760
    1W        W43437  14.732   4.087   3.719  0.0854 -0.0193 -0.2778
    1W        W43438   0.697  11.352   8.144 -0.2076 -0.1485  0.1987
    1W        W43439   8.377   1.763   8.134 -0.3751 -0.0832 -0.1375
    1W        W43440  22.075   2.002   6.751 -0.0474 -0.1585 -0.2045
    1W        W43441  13.716   0.656   0.498  0.0728  0.0436 -0.0473
    1W        W43442  16.448  28.157   8.287 -0.3370 -0.0659  0.0166
    1W        W43443   9.476  11.200   7.601  0.1798 -0.3027 -0.2647
    1W        W43444  25.446  13.221   6.955 -0.1006 -0.0668 -0.1139
    1W        W43445   2.945   0.401   2.836  0.1321  0.0076 -0.0541
    1W        W43446  11.166   5.569   9.408 -0.2720  0.1479  0.1512
    1W        W43447   1.060  23.780   1.879 -0.0690 -0.1663 -0.0976
    1W        W43448  12.680  13.700   1.318 -0.0427  0.0703  0.1608
    1W        W43449  11.787  18.948   0.942  0.1513  0.0310 -0.2015
    1W        W43450   4.636   3.548   1.907 -0.0242 -0.3771  0.0106
    1W        W43451  25.413   3.289   2.413 -0.1118 -0.0463  0.2744
    1W        W43452  10.762  27.955   3.107 -0.0546 -0.0589  0.1308
    1W        W43453   4.963  11.803   9.347 -0.0118  0.0544  0.0456
    1W        W43454  22.928  11.524   6.937  0.1340  0.1243 -0.0917
    1W        W43455  18.366   2.105   8.158  0.0564  0.0181 -0.0194
    1W        W43456  28.105  22.898   0.334  0.3141  0.1157 -0.0474
    1W        W43457  24.648  22.761   1.878  0.2348 -0.0520  0.1126
    1W        W43458  25.555  15.531   6.528 -0.1585  0.0606 -0.0805
    1W        W43459  20.158  18.096   9.014  0.1600  0.2076 -0.0310
    1W        W43460  15.383  24.367   2.731  0.0594  0.0990  0.0957
    1W        W43461   5.883  21.266   9.414  0.0012  0.1323  0.3495
    1W        W43462  19.985   4.756   8.850 -0.0412  0.0048 -0.0015
    1W        W43463  14.911   3.865   8.324 -0.0826 -0.3262 -0.0488
    1W        W43464   9.437  29.203   2.630 -0.0808 -0.1024  0.3809
    1W        W43465  28.057  27.604   9.113 -0.0095  0.0258 -0.0383
    1W        W43466  13.931  14.155   0.177 -0.3854  0.4210 -0.1187
    1W        W43467  18.055  11.917   8.033  0.3585  0.0252  0.0623
    1W        W43468  25.674  20.983   7.364  0.1660 -0.3257 -0.2609
    1W        W43469  20.496   8.240   1.658  0.0694  0.3593 -0.3186
    1W        W43470  13.989   1.981   0.882  0.0116 -0.1491  0.1556
    1W        W43471   8.933   2.848   1.422 -0.0687 -0.1717  0.3087
    1W        W43472   1.699  14.526   8.959 -0.1394 -0.0217  0.0640
    1W        W43473  11.057  28.949   8.876  0.1237 -0.1309 -0.0465
    1W        W43474  26.459  18.330   9.485 -0.2210  0.0886 -0.1847
    1W        W43475  13.441  13.266   8.584  0.4740  0.1343 -0.0742
    1W        W43476  23.906   4.961   9.276  0.2352  0.0538 -0.2241
    1W        W43477   2.851  10.623   2.006 -0.0711  0.0577 -0.1711
    1W        W43478   3.656   2.931   1.260 -0.1063 -0.2011  0.0318
    1W        W43479  11.375  13.147   7.717  0.0968 -0.0335 -0.1570
    1W        W43480   5.850  20.292   7.016  0.2647  0.0466  0.2306
    1W        W43481  19.035   0.260   8.600  0.2579 -0.0839 -0.3098
    1W        W43482   5.841  20.119   1.043  0.0256  0.0297 -0.1106
    1W        W43483  10.344  25.744   0.470  0.0128  0.1043  0.0727
    1W        W43484   1.110  26.411   8.806  0.1193 -0.4428  0.2900
    1W        W43485  14.216   7.724   8.471  0.0062 -0.3516  0.1510
    1W        W43486  16.932  21.138   7.309  0.1011  0.0193  0.0498
    1W        W43487  16.115  10.337   8.665 -0.0056 -0.2201 -0.3880
    1W        W43488  25.404  26.475   2.556  0.1841 -0.1628 -0.2427
    1W        W43489  14.071  10.291   1.273 -0.0203  0.0216  0.1742
    1W        W43490   8.821   8.102   3.150  0.3814 -0.1740  0.0818
    1W        W43491  25.482   9.682   2.188 -0.0513 -0.0578 -0.0719
    1W        W43492  11.668   8.934   0.989  0.0767 -0.0818 -0.0346
    1W        W43493  10.967   9.444   2.290  0.1160 -0.1244  0.1988
    1W        W43494   9.005  10.910   0.507 -0.1051 -0.3551 -0.3464
    1W        W43495   9.751  24.690   0.554  0.0812  0.2163 -0.0365
    1W        W43496  16.217  15.014   9.593 -0.0076 -0.0944  0.0299
    1W        W43497  25.319  17.559   0.134 -0.1622  0.1932 -0.0851
    1W        W43498  19.684   0.495   0.107  0.1093  0.2287  0.0937
    1W        W43499  24.988  28.991   0.522 -0.2627 -0.0450 -0.0064
    1W        W43500  22.031   6.974   0.828  0.2508  0.3481 -0.0454
    1W        W43501  25.925  23.911   2.555  0.3046 -0.0991  0.5383
    1W        W43502  28.163   0.493   8.239  0.1705 -0.1565  0.2354
    1W        W43503  24.986  26.663   8.295 -0.0956  0.2507  0.2510
    1W        W43504   7.470   0.109   8.643  0.1866  0.0619  0.2668
    1W        W43505  27.707  18.436   6.897  0.1739  0.4137 -0.0275
    1W        W43506  11.077  11.018   8.784 -0.2337 -0.1904 -0.1159
    1W        W43507  29.029  25.555   2.011  0.0079 -0.0887  0.1092
    1W        W43508   5.890  25.931   7.219  0.0130 -0.0406 -0.1181
    1W        W43509  27.355   8.249   5.870 -0.2203 -0.0348  0.0212
    1W        W43510   8.470  16.047   7.536 -0.0012  0.0064  0.2690
    1W        W43511   9.799   6.885   0.229 -0.1585 -0.0936  0.0576
    1W        W43512  11.106  25.725   9.176 -0.0324  0.2569 -0.0789
    1W        W43513   0.429   6.462   6.545  0.2076 -0.0848 -0.0667
    1W        W43514  13.007  25.930   1.512 -0.1233  0.1921 -0.3622
    1W        W43515  15.911  18.780   2.931 -0.0092  0.1619  0.4045
    1W        W43516  13.653   7.329   1.302  0.0639 -0.1658 -0.0364
    1W        W43517   6.137   1.208   0.311 -0.1607  0.0742 -0.3463
    1W        W43518  21.370  17.187   9.269  0.0333 -0.1760  0.0586
    1W        W43519   6.403   9.751   2.412  0.3403 -0.2758  0.1111
    1W        W43520  28.349  15.454   8.724  0.2938  0.0896 -0.0490
    1W        W43521  28.379   6.235   6.906 -0.3367 -0.1588 -0.2923
    1W        W43522  12.033   2.765   1.239 -0.2714 -0.0158  0.0075
    1W        W43523  12.437  16.896   9.109 -0.2103 -0.0205 -0.1430
    1W        W43524  18.665  21.888   1.993 -0.1159 -0.0322  0.1672
    1W        W43525  26.019  12.696   8.269  0.0214  0.2313  0.1150
    1W        W43526  12.998  25.291   0.901  0.0189 -0.2213  0.1064
    1W        W43527  23.119  24.210   2.146 -0.2689 -0.0231  0.2905
    1W        W43528  12.086  11.153   0.092  0.0919  0.0128  0.0124
    1W        W43529  18.812   1.338   1.564 -0.5243  0.3431 -0.1285
    1W        W43530   8.062   4.450   0.132  0.3360  0.0068  0.1292
    1W        W43531   6.057  14.322   1.014 -0.1491  0.3422 -0.2979
    1W        W43532  13.885   1.470   0.958 -0.1261  0.4592  0.2360
    1W        W43533  23.797  17.311   9.137 -0.2841  0.0741  0.1890
    1W        W43534  13.843   2.997   0.395  0.0813  0.2602  0.0145
    1W        W43535  24.062  21.603   0.523 -0.2371 -0.1541 -0.1661
    1W        W43536   0.725   8.174   0.089 -0.1880 -0.1332 -0.2312
    1W        W43537  28.148  10.414   7.548 -0.3740  0.0523 -0.2110
    1W        W43538  21.513  15.101   0.528  0.0932 -0.2224 -0.2742
    1W        W43539   8.447  11.306   6.901 -0.2481 -0.1805 -0.1924
    1W        W43540  15.809  25.723   7.702 -0.2442 -0.0554 -0.1324
    1W        W43541  23.188   9.546   9.402 -0.2422  0.1412  0.0402
    1W        W43542  28.154   6.330   8.294  0.2992  0.2925  0.2123
    1W        W43543  27.523  10.511   0.163  0.2890  0.1062 -0.0429
    1W        W43544  24.723  10.935   1.924 -0.2326  0.2200  0.0536
    1W        W43545  24.013  14.792   7.263  0.0963  0.0101  0.0304
    1W        W43546  21.227  19.386   3.263 -0.0041 -0.3548  0.0508
    1W        W43547  10.869  27.158   7.718 -0.1953  0.1023 -0.0572
    1W        W43548   5.030  10.510   2.267  0.1454  0.0255  0.0055
    1W        W43549  27.327   0.108   1.110 -0.2840  0.1364 -0.1360
    1W        W43550   6.970   8.066   1.010 -0.2331 -0.2359  0.0930
    1W        W43551  27.573  28.156   1.732  0.2588  0.2922 -0.0887
    1W        W43552  20.363   3.700   0.611 -0.0781 -0.2568  0.0769
    1W        W43553  14.834  10.887   1.603 -0.1191 -0.0002 -0.0590
    1W        W43554  17.289  20.448   9.329 -0.0847 -0.0367 -0.2356
    1W        W43555  23.342  20.673   1.383  0.0958 -0.2054  0.1912
    1W        W43556  13.013  20.567   7.889 -0.1729 -0.1216  0.0911
    1W        W43557  27.576  29.022   7.720  0.0388  0.1932  0.1338
    1W        W43558  25.285  20.624   7.313  0.2530 -0.0976 -0.1308
    1W        W43559   0.179  25.975   1.127  0.1446 -0.0682  0.0452
    1W        W43560  17.355  17.216   2.409 -0.2659 -0.0837 -0.1455
    1W        W43561   0.953  22.996   0.546 -0.1010 -0.1150  0.1664
    1W        W43562  19.368  18.090   2.841 -0.1502  0.0924  0.0634
    1W        W43563  17.598   9.267   2.993 -0.0009  0.1223  0.1865
    1W        W43564  20.289  23.892   7.088 -0.0552  0.0649 -0.1496
    1W        W43565   4.205  14.506   9.605  0.3387  0.0414  0.0315
    1W        W43566  22.892  11.193   1.654 -0.1518 -0.2825 -0.2240
    1W        W43567  25.144  28.795   8.937 -0.0060  0.2651  0.1581
    1W        W43568   3.389  20.436   6.569  0.0813  0.3995  0.2037
    1W        W43569   2.622  21.706   0.498 -0.0052 -0.3796 -0.3809
    1W        W43570  11.681   8.202   8.310  0.0769  0.0249  0.1816
    1W        W43571  23.263  24.497   7.172  0.2851  0.0942  0.1780
    1W        W43572  22.844  10.385   7.064 -0.2281  0.0759  0.1665
    1W        W43573   7.972  17.514   8.818 -0.0579  0.1896  0.1305
    1W        W43574  16.315  21.819   0.411  0.2267 -0.0014 -0.4674
    1W        W43575  12.953  10.979   2.551  0.0746 -0.2456  0.1014
    1W        W43576  28.363   3.214   7.981  0.0462  0.1714 -0.0676
    1W        W43577   2.301   7.137   7.448  0.0638 -0.0628  0.1777
    1W        W43578  20.286  23.483   9.629 -0.1336 -0.2306 -0.1537
    1W        W43579  23.915  17.579   8.755  0.0900  0.0748  0.0523
    1W        W43580   8.953   3.999   0.006  0.0450  0.2002  0.0530
    1W        W43581  23.093  21.962   0.316 -0.2413  0.1568 -0.1082
    1W        W43582  28.795  13.156   9.257  0.1106 -0.0487 -0.0978
    1W        W43583  17.782  26.074   0.358  0.0945 -0.2822  0.1651
    1W        W43584   3.752   7.524   7.869 -0.1428  0.0130 -0.0440
    1W        W43585   1.383   9.717   7.464 -0.1734  0.2077  0.2609
    1W        W43586  14.446   6.698   2.497  0.0012  0.0920  0.2420
    1W        W43587  24.613   7.392   9.082 -0.0953 -0.3248 -0.0026
    1W        W43588   1.229  21.691   7.986 -0.0546  0.1777 -0.0516
    1W        W43589   9.722  20.047   6.559  0.1342 -0.0677  0.1028
    1W        W43590  24.359  19.339   1.956  0.1027 -0.2392 -0.2752
    1W        W43591  11.354   5.070   8.138 -0.0259  0.1453  0.1008
    1W        W43592  16.710  25.717   1.596 -0.3731  0.1343 -0.0605
    1W        W43593  22.803   4.056   1.210  0.1346  0.0026 -0.0813
    1W        W43594   5.972  10.544   0.857 -0.0513 -0.0988 -0.2873
    1W        W43595   2.489  27.546   7.950 -0.1587 -0.0801 -0.2075
    1W        W43596  22.837  16.203   8.217  0.0098  0.4808  0.0973
    1W        W43597  24.685   6.345   7.761 -0.3287  0.1230  0.0506
    1W        W43598  19.798  24.369   0.138  0.1235 -0.1304  0.1608
    1W        W43599   8.920  22.264   7.538  0.1303 -0.3359  0.1957
    1W        W43600  17.658  10.471   0.311  0.3248 -0.0719  0.1193
    1W        W43601  28.877  27.348   0.470  0.2669  0.1547 -0.1780
    1W        W43602  24.323   3.961   6.502  0.1474 -0.1588 -0.2219
    1W        W43603  14.552   0.418   3.819  0.1542 -0.0938 -0.0847
    1W        W43604   0.886  14.967   7.407  0.2342 -0.3204 -0.3225
    1W        W43605  28.077   1.956   1.041  0.0050  0.0752 -0.0704
    1W        W43606   3.587   4.854   1.938  0.2054 -0.0365 -0.2282
    1W        W43607  22.532   0.824   7.077 -0.0504 -0.1775 -0.1891
    1W        W43608  25.433  20.167   2.173 -0.2875 -0.2740  0.0708
    1W        W43609  16.980  26.268   8.248 -0.2757 -0.1491 -0.0333
    1W        W43610   5.681  24.082   8.196  0.1230 -0.1996  0.1036
    1W        W43611  18.095   7.763   1.380  0.1349  0.1155  0.1368
    1W        W43612  23.189   6.424   2.346 -0.0304 -0.2135 -0.1074
    1W        W43613  23.122   5.600   1.760 -0.0377 -0.0841 -0.0038
    1W        W43614  16.258  23.519   2.224 -0.0486 -0.2537 -0.2170
    1W        W43615  25.121   7.066   7.034  0.0687  0.0444  0.1361
    1W        W43616  22.911  21.071   7.345  0.3044  0.2433 -0.0478
    1W        W43617  29.110  22.516   9.165  0.2331  0.0340  0.0513
    1W        W43618  28.570  10.314   2.622 -0.3745 -0.2179  0.2816
    1W        W43619  26.644  21.617   0.454 -0.2621  0.0587  0.0200
    1W        W43620   0.495   1.884   2.145  0.2923  0.4738  0.1075
    1W        W43621  10.996   3.418   8.468  0.0939 -0.1910  0.0998
    1W        W43622  24.094   2.520   7.293  0.0516  0.2454 -0.0593
    1W        W43623   8.873  29.269   2.298 -0.0510  0.0221 -0.1274
    1W        W43624  10.361  26.140   1.043  0.1202  0.0329 -0.2090
    1W        W43625  20.740   7.550   2.060 -0.0880 -0.0061  0.2003
    1W        W43626  10.620  24.862   7.175 -0.0413  0.0207  0.1971
    1W        W43627  12.328   6.441   7.684  0.0185  0.0447 -0.0341
    1W        W43628   7.007   7.954   1.898 -0.2738 -0.0734  0.0214
    1W        W43629  22.992  25.408   1.521 -0.1697 -0.1803  0.0310
    1W        W43630   5.288  23.044   2.817  0.2440 -0.2620 -0.0589
    1W        W43631  26.667  13.665   2.625  0.0737 -0.2646 -0.3943
    1W        W43632   0.522  28.924   0.451  0.1777 -0.0192  0.1088
    1W        W43633  28.120   2.699   0.158  0.2207 -0.1494 -0.0149
    1W        W43634  28.732   9.209   1.268 -0.0794 -0.0007 -0.2942
    1W        W43635  23.727   4.776   1.860 -0.0892 -0.2573  0.1907
    1W        W43636  22.868  28.780   6.287  0.3355 -0.2646  0.0823
    1W        W43637  22.798   1.049   8.596  0.0176 -0.0581 -0.1463
    1W        W43638  26.019  20.324   9.038  0.3122  0.0864 -0.0713
    1W        W43639   5.347   2.146   8.867  0.0461  0.0572  0.1073
    1W        W43640  21.340   5.400   8.626  0.1416 -0.3921 -0.0096
    1W        W43641  24.925  27.772   0.115 -0.0404  0.1308  0.3271
    1W        W43642  23.923   0.208   7.709 -0.1884 -0.0312 -0.2201
    1W        W43643  27.944   2.538   7.575  0.2839  0.2734  0.2755
    1W        W43644  16.056  28.684   1.644  0.3054  0.0149 -0.1901
    1W        W43645  22.184  19.174   6.748  0.4277 -0.0164 -0.2125
    1W        W43646  28.799  15.762   0.304 -0.1330  0.1385 -0.2375
    1W        W43647  15.815   2.184   1.002  0.0409  0.1476  0.0695
    1W        W43648  24.524   7.880   9.012  0.0960 -0.1687  0.3561
    1W        W43649  18.505   2.016   0.594 -0.2449 -0.0477 -0.1731
    1W        W43650  26.038  11.091   6.705  0.2633 -0.0793 -0.0088
    1W        W43651  13.735   3.413   8.774 -0.1154  0.0730  0.2422
    1W        W43652  20.905  23.900   8.265  0.2767  0.2039 -0.1712
    1W        W43653   9.016   8.590   1.466 -0.1002  0.0299  0.1163
    1W        W43654   3.805  17.518   7.383 -0.1837 -0.0644 -0.1547
    1W        W43655  20.320  10.394   9.465 -0.2268 -0.0176  0.3314
    1W        W43656  20.950  18.640   7.873  0.0714  0.1420  0.1101
    1W        W43657   3.699   9.877   6.630  0.2310  0.1452  0.1256
    1W        W43658  11.071  14.941   2.324  0.0285 -0.1116 -0.1644
    1W        W43659   4.703   7.679   7.888  0.0663 -0.0633 -0.3215
    1W        W43660  17.133  24.136   0.255  0.0180 -0.1713  0.1362
    1W        W43661  10.162   4.587   2.099  0.0621  0.1760  0.1792
    1W        W43662  17.454  21.366   1.851 -0.0724 -0.0436 -0.0845
    1W        W43663  28.482  19.312   7.222 -0.1639 -0.0539 -0.1297
    1W        W43664   0.410   0.774   3.141 -0.0318  0.0348 -0.1246
    1W        W43665   0.508  14.761   2.500  0.0888  0.1061  0.2318
    1W        W43666  19.300  19.004   2.435  0.0772 -0.2263  0.0680
    1W        W43667  19.790  19.817   2.793  0.3768 -0.1185 -0.1086
    1W        W43668  25.419  18.616   6.214 -0.1316 -0.0824 -0.0103
    1W        W43669  12.856  14.066   8.998 -0.1163  0.0478  0.2366
    1W        W43670  11.725  15.597   1.233 -0.2199 -0.0183 -0.2395
    1W        W43671  21.247   0.766   2.506 -0.1684  0.3391 -0.0730
    1W        W43672  23.254  27.875   7.731  0.0158  0.0656 -0.1954
    1W        W43673  23.573  28.008   7.367  0.1201  0.1476  0.1352
    1W        W43674  17.600   8.078   1.381  0.2098 -0.1375 -0.0005
    1W        W43675  23.872   8.477   0.278  0.2927 -0.1720  0.0521
    1W        W43676  12.564  20.370   0.237  0.0715 -0.0227  0.1892
    1W        W43677  27.065  16.580   7.369 -0.3488  0.1451  0.1571
    1W        W43678  20.969  16.332   7.847  0.0625  0.1998  0.0924
    1W        W43679  27.426  19.644   8.397  0.1735  0.0683  0.3750
    1W        W43680  26.722   8.293   6.484  0.0954  0.0010  0.1186
    1W        W43681   9.454   7.877   8.367  0.0110  0.2184  0.0085
    1W        W43682  21.830  15.868   0.862  0.0669 -0.4014 -0.2203
    1W        W43683   6.747  20.306   7.123 -0.3131  0.0980  0.0504
    1W        W43684  18.624  10.674   8.906 -0.1501  0.2051  0.2705
    1W        W43685  11.244  16.122   0.330  0.0262  0.0591  0.0106
    1W        W43686  24.809  10.020   0.934 -0.1449  0.1011 -0.2473
    1W        W43687  10.546  14.970   8.658 -0.0566 -0.1499  0.0575
    1W        W43688   6.433  14.372   8.438 -0.1527 -0.1361  0.3303
    1W        W43689  15.779  27.339   2.600 -0.1974 -0.0584 -0.0278
    1W        W43690   7.249  16.139   2.237  0.2119 -0.3825  0.1175
    1W        W43691   5.625   9.589   1.832  0.1262  0.3319  0.0134
    1W        W43692  15.309  12.278   2.112  0.1828  0.1808  0.3016
    1W        W43693  23.561   3.127   1.048  0.3448 -0.0319  0.2928
    1W        W43694  15.690  24.159   1.079 -0.0260  0.1406 -0.3570
    1W        W43695  26.266  26.278   0.428  0.1461 -0.0696 -0.0312
    1W        W43696  19.359  25.446   0.806  0.1181 -0.0398 -0.0088
    1W        W43697  17.882  18.162   7.443 -0.1114  0.2887 -0.1786
    1W        W43698  27.333   8.383   9.045  0.0274  0.2374 -0.1517
    1W        W43699   7.234   5.618   0.458  0.2886 -0.0918  0.1745
    1W        W43700  24.384   8.337   7.150  0.2871  0.2621 -0.0560
    1W        W43701  18.737  18.114   8.257 -0.0229  0.2715 -0.0016
    1W        W43702  14.953   2.157   2.181 -0.1837  0.1026 -0.1557
    1W        W43703  23.039   3.854   7.114  0.0064 -0.0315  0.1571
    1W        W43704  13.194   9.686   2.372  0.1315 -0.0109  0.0041
    1W        W43705  18.970   5.592   7.420 -0.0506 -0.0079 -0.0414
    1W        W43706  14.401  15.714   7.578  0.2536 -0.2873 -0.0543
    1W        W43707   7.153  14.817   0.391  0.1138 -0.0449 -0.1859
    1W        W43708  13.425  20.799   7.687 -0.1827 -0.2371 -0.2405
    1W        W43709  28.308  27.486   1.987 -0.0629  0.0780 -0.0095
    1W        W43710   9.090  28.855   2.458 -0.2746  0.1310  0.0634
    1W        W43711   7.996  20.785   2.147  0.1532 -0.4097  0.2754
    1W        W43712  20.877   0.732   6.692 -0.1266  0.1784  0.0686
    1W        W43713  20.569  11.038   2.033  0.1458 -0.2188  0.2024
    1W        W43714  16.043  12.525   1.787  0.0165 -0.2937 -0.1274
    1W        W43715   5.260   0.949   3.824 -0.0426  0.0353 -0.2875
    1W        W43716  22.445   3.570   1.252  0.0315 -0.5587 -0.0014
    1W        W43717  15.981  18.924   8.412 -0.0054  0.1926  0.0540
    1W        W43718   1.853   6.315   5.958  0.1462 -0.0688 -0.0850
    1W        W43719  28.804  25.183   3.267 -0.2883  0.0015  0.1180
    1W        W43720   7.206  25.149   9.324  0.2780 -0.0702  0.1731
    1W        W43721   2.811  18.481   6.100  0.2276 -0.0073 -0.2868
    1W        W43722  22.450  24.999   9.521  0.1228 -0.1044  0.0574
    1W        W43723   6.765   0.620   0.765  0.1727 -0.3168  0.0610
    1W        W43724   6.244  18.457   5.478 -0.2350 -0.1303  0.0453
    1W        W43725   3.098  18.981   7.732 -0.0464  0.0622 -0.0521
    1W        W43726  25.938   9.354   0.745 -0.1218  0.0134  0.3193
    1W        W43727   2.439   8.671   2.855  0.1868  0.1482 -0.0238
    1W        W43728  23.026  25.194   9.063  0.2617 -0.1248 -0.1118
    1W        W43729  18.767  17.950   7.495  0.2509 -0.3559  0.0741
    1W        W43730  14.171   5.460   7.662  0.1264 -0.2091  0.2304
    1W        W43731  27.742   6.364   1.856 -0.1759 -0.0871 -0.2089
    1W        W43732  24.076  19.725   9.093  0.1887 -0.3243  0.1230
    1W        W43733  27.201  12.559   0.986 -0.1989  0.0530 -0.3412
    1W        W43734  12.207  20.777   2.460  0.2361 -0.1075  0.2704
    1W        W43735   7.517  10.265   0.693 -0.0051 -0.0409 -0.1902
    1W        W43736   0.217  27.505   9.633 -0.0060 -0.1621  0.0166
    1W        W43737  22.494  24.933   0.941 -0.1270  0.0152 -0.1289
    1W        W43738   1.962  10.587   0.293 -0.1216  0.4147  0.0164
    1W        W43739   6.896   0.135   0.604  0.0601  0.0959  0.1183
    1W        W43740   5.550  28.237   8.501 -0.1920  0.0976 -0.2085
    1W        W43741   3.521   7.540   0.400 -0.2262 -0.1507 -0.2898
    1W        W43742  27.791  26.118   7.316 -0.0064  0.2580  0.1644
    1W        W43743   4.766   1.413   6.902 -0.1949  0.1088  0.3249
    1W        W43744  18.194   8.821   0.314 -0.0107 -0.0496 -0.1927
    1W        W43745   5.292  12.399   1.912  0.2401  0.2236  0.0205
    1W        W43746  15.513  26.908   7.900  0.1475  0.2039  0.3267
    1W        W43747   7.263   9.752   1.838 -0.1189  0.2174  0.1854
    1W        W43748  13.281  23.947   0.508  0.1141  0.1782 -0.1586
    1W        W43749  20.274  13.620   9.059  0.1720 -0.1049 -0.0409
    1W        W43750  23.183   3.047   5.888  0.1457  0.2349 -0.0394
    1W        W43751  15.265  11.733   7.266  0.2147  0.2064 -0.0177
    1W        W43752  17.004  27.627   8.947 -0.1241 -0.1771  0.3334
    1W        W43753  23.876  20.264   8.199  0.0728 -0.0406 -0.2274
    1W        W43754   1.992  17.979   1.664  0.2371 -0.0900 -0.3694
    1W        W43755   7.591   8.932   0.242  0.0546  0.1454 -0.2469
    1W        W43756  12.700   6.373   8.105 -0.0057 -0.0886 -0.2282
    1W        W43757  21.742  28.307   2.069  0.1702 -0.0052  0.0045
    1W        W43758   2.744  12.852   8.569  0.0410 -0.1449  0.2325
    1W        W43759  28.126  12.642   7.595  0.0810 -0.1629  0.1479
    1W        W43760   0.380  20.071   7.905  0.2695 -0.2236  0.0566
    1W        W43761  17.602   5.365   3.033 -0.0361 -0.1325 -0.4536
    1W        W43762   5.868   5.034   7.517  0.2836 -0.3079  0.3598
    1W        W43763  12.500  17.685   7.671  0.1338  0.4594  0.0045
    1W        W43764  27.506  15.423   6.579 -0.0582 -0.5881 -0.1411
    1W        W43765   7.974  20.737   2.679 -0.1036  0.0951  0.0481
    1W        W43766   0.277  19.062   6.577  0.0522 -0.0338 -0.3398
    1W        W43767  25.312   4.362   2.267  0.0173 -0.0095 -0.1949
    1W        W43768  18.023  27.330   8.656  0.0861 -0.0239  0.0052
    1W        W43769   7.731   3.774   9.291  0.0261  0.1521  0.0856
    1W        W43770   7.866  19.893   1.331 -0.0909  0.2516  0.2155
    1W        W43771  10.622  17.683   1.873 -0.1767 -0.3792  0.0456
    1W        W43772   4.100  25.844   1.848  0.2216  0.4112  0.1374
    1W        W43773  13.647  22.364   8.972  0.2680  0.0112  0.2029
    1W        W43774  25.058   9.498   7.505  0.2040 -0.0639  0.1998
    1W        W43775   9.522   9.816   2.556 -0.1934  0.2846 -0.2510
    1W        W43776  17.792  16.479   9.118 -0.0822  0.0755 -0.1218
    1W        W43777  28.809  21.837   7.035 -0.0951  0.1078  0.0211
    1W        W43778  21.377  26.912   7.146 -0.0832 -0.1376 -0.0154
    1W        W43779  15.196  22.367   7.787  0.0342  0.0129  0.1910
    1W        W43780   2.830  17.773   6.772 -0.1488 -0.1101  0.1587
    1W        W43781  27.325  25.744   8.187  0.1444 -0.0626 -0.0105
    1W        W43782  25.243   6.454   6.389  0.0209  0.0954 -0.0483
    1W        W43783   3.264  22.576   5.662  0.1243  0.0579  0.0939
    1W        W43784   3.267   8.945   7.482  0.1000  0.0439  0.1023
    1W        W43785  20.462  12.027   1.047  0.3156 -0.0395 -0.1302
    1W        W43786   0.543  10.764   6.710 -0.0645  0.0226  0.1218
    1W        W43787  20.229  11.535   2.672  0.0201 -0.0960  0.2909
    1W        W43788  22.553  11.381   7.910  0.0920  0.2940  0.0792
    1W        W43789   7.438  17.225   7.067 -0.0269 -0.2283 -0.1335
    1W        W43790   1.210   2.721   0.669  0.0288 -0.1137  0.0203
    1W        W43791  18.852  23.485   7.551 -0.0687 -0.1355  0.4748
    1W        W43792  20.424  11.020   7.508 -0.1774 -0.0492  0.3746
    1W        W43793  27.232   0.227   6.217 -0.3523  0.2133 -0.1758
    1W        W43794   4.461  16.827   7.212  0.0402  0.2199  0.0366
    1W        W43795  13.877   8.302   2.172  0.0868 -0.1314  0.1353
    1W        W43796  11.337   4.882   0.774  0.0177 -0.1573  0.0125
    1W        W43797   2.038  13.683   8.917  0.1976  0.1036 -0.0288
    1W        W43798  12.760   4.131   9.665  0.0134 -0.0565  0.1708
    1W        W43799  15.941  12.776   7.842  0.2060 -0.2520 -0.1181
    1W        W43800  10.920   4.688   8.165 -0.3201  0.0274  0.3338
    1W        W43801  23.864  22.025   7.788  0.2007  0.1781 -0.2355
    1W        W43802   2.874  21.568   2.542 -0.1477  0.0701  0.0382
    1W        W43803  24.265   0.694   8.707 -0.2264 -0.0099  0.0135
    1W        W43804  21.122  20.797   1.291  0.2134  0.1914 -0.1985
    1W        W43805  18.897   7.691   2.706  0.0755  0.1562  0.0298
    1W        W43806  18.146   3.382   0.014  0.0772 -0.4404  0.0264
    1W        W43807   3.156  12.462   9.324  0.1166  0.0885  0.1425
    1W        W43808   9.183  24.069   1.118 -0.0486 -0.0932  0.1488
    1W        W43809  29.210  15.660   1.238 -0.1623  0.0418  0.1861
    1W        W43810   5.150  12.898   7.022  0.2130  0.1785  0.0274
    1W        W43811  17.734  12.124   7.697 -0.0984  0.1768  0.3563
    1W        W43812  27.632   6.867   6.607 -0.2778  0.2753  0.2223
    1W        W43813  13.302   8.697   0.236 -0.0085  0.0410  0.0712
    1W        W43814  20.599  19.456   8.007 -0.0968 -0.2134  0.1780
    1W        W43815   2.824  21.284   0.611 -0.0290  0.0503  0.2567
    1W        W43816  22.637  27.641   7.102  0.0316  0.0701 -0.0254
    1W        W43817  26.617   3.359   8.539 -0.2480 -0.0913  0.1753
    1W        W43818  26.285   4.758   9.393  0.0165 -0.1384  0.1189
    1W        W43819  26.511  23.229   8.661  0.1440 -0.0831 -0.0791
    1W        W43820   7.844  16.217   1.971  0.0513 -0.1251 -0.0291
    1W        W43821  21.011  23.002   8.607 -0.0685 -0.0818 -0.3047
    1W        W43822   2.092  29.030   6.403  0.2838 -0.0058  0.1949
    1W        W43823   7.128  22.562   2.270  0.1006 -0.0544 -0.0878
    1W        W43824  22.333   4.356   8.841 -0.0350 -0.2485  0.0104
    1W        W43825   0.672   6.903   2.762 -0.0470 -0.2917 -0.1825
    1W        W43826  29.054   8.974   0.277  0.1761 -0.3284 -0.1675
    1W        W43827  27.661  25.471   1.069  0.0558  0.0523 -0.5761
    1W        W43828  23.028  28.970   9.690  0.2432  0.1612 -0.3141
    1W        W43829  27.395  11.938   2.209 -0.0203 -0.1299  0.1735
    1W        W43830  17.661  10.940   9.092 -0.0609 -0.0503 -0.0997
    1W        W43831   4.873   8.819   0.925 -0.0732 -0.1040  0.1623
    1W        W43832   7.267  10.933   2.649  0.0624  0.2381  0.2947
    1W        W43833   5.072  14.656   7.461  0.0212  0.1126  0.1331
    1W        W43834  13.568  26.969   3.168 -0.0466 -0.0804  0.3701
    1W        W43835  27.631  20.746   1.635  0.1949 -0.1366 -0.1411
    1W        W43836  22.814  25.682   9.056 -0.0410 -0.0702  0.0001
    1W        W43837  10.668   7.335   7.679 -0.1545 -0.0477  0.0256
    1W        W43838   0.172  25.853   9.550  0.1335 -0.1750  0.1361
    1W        W43839   5.723  24.283   7.741  0.0005  0.1857 -0.1864
    1W        W43840   6.723  15.845   1.687  0.1294  0.0176 -0.2067
    1W        W43841  12.431  16.760   1.198  0.0957 -0.0739 -0.0583
    1W        W43842  14.515  13.024   2.758 -0.0454  0.2912 -0.0424
    1W        W43843  20.216   6.117   1.093  0.1413  0.4718  0.0675
    1W        W43844  22.921  10.931   0.654  0.0593  0.1364 -0.3226
    1W        W43845   0.201  16.944   7.842  0.0631 -0.1395  0.0434
    1W        W43846   7.895  11.652   0.759  0.0466 -0.2287 -0.3901
    1W        W43847  23.559   0.351   1.674  0.1472 -0.0240  0.0201
    1W        W43848   7.786  12.086   1.425 -0.0686 -0.1403  0.1946
    1W        W43849   0.467  13.083   6.225 -0.1631  0.2707  0.0823
    1W        W43850  15.516  27.769   0.208  0.4369  0.0555  0.0751
    1W        W43851   4.236   2.027   9.501 -0.0395  0.1614  0.0768
    1W        W43852  14.968  16.627   0.280  0.1670 -0.3956 -0.2240
    1W        W43853   0.937  10.427   9.013 -0.2291  0.0107 -0.2331
    1W        W43854   7.470  24.117   7.652  0.0376 -0.1020 -0.3911
    1W        W43855  12.136   9.634   3.080  0.1663 -0.0408 -0.0075
    1W        W43856   8.793  19.986   9.664 -0.1239 -0.0802 -0.2236
    1W        W43857   4.461  26.838   3.457 -0.3084 -0.3605  0.0972
    1W        W43858  15.800  19.923   2.427 -0.0245  0.0707 -0.0663
    1W        W43859  12.681   2.266   7.582  0.0764  0.2371 -0.0359
    1W        W43860  26.573  24.929   1.963  0.1555  0.2353 -0.1286
    1W        W43861  26.178   6.203   8.165 -0.0363 -0.1032 -0.2624
    1W        W43862   4.957   1.149   9.586  0.0022 -0.0045 -0.3505
    1W        W43863  11.437   0.191   2.387  0.0454  0.0711  0.0829
    1W        W43864   2.316   2.181   7.521  0.0802  0.0973  0.0909
    1W        W43865  12.957  27.301   0.724  0.0743  0.0753 -0.1057
    1W        W43866  14.729  20.100   8.813  0.0419 -0.0763 -0.1157
    1W        W43867  12.553  12.983   1.888  0.1158  0.0429 -0.2847
    1W        W43868  26.953  23.857   7.203 -0.2582 -0.1391 -0.2312
    1W        W43869   1.358  26.274   9.363 -0.2225 -0.2956  0.2013
    1W        W43870  16.050  16.788   0.770  0.1340  0.1480  0.1407
    1W        W43871   8.505  17.641   6.050  0.0551 -0.1699 -0.3149
    1W        W43872   7.049  16.189   7.316  0.0967 -0.0791  0.0866
    1W        W43873  22.838  14.718   9.163 -0.3828 -0.0562 -0.1327
    1W        W43874   5.219   6.198   7.752 -0.2844 -0.0683  0.0127
    1W        W43875   4.433  29.183   2.067  0.1236  0.0806  0.0050
    1W        W43876   9.634  22.941   7.616 -0.1179 -0.0658  0.2281
    1W        W43877  25.397  23.950   7.535  0.0058  0.2575  0.2629
    1W        W43878  20.750  21.706   2.988  0.0055 -0.1410 -0.1279
    1W        W43879  25.571  18.123   2.912 -0.0502  0.0863 -0.0422
    1W        W43880  17.202   9.496   3.337 -0.0687 -0.0523 -0.1412
    1W        W43881  14.026  28.815   3.101  0.2540  0.1631 -0.1103
    1W        W43882   2.679  11.661   9.282  0.1240 -0.2541  0.3235
    1W        W43883   5.508   3.360   1.188 -0.0511 -0.2296 -0.2349
    1W        W43884   3.797   5.087   2.338  0.0927 -0.3524  0.0029
    1W        W43885  13.542   2.429   7.680  0.5703 -0.0780 -0.1348
    1W        W43886  13.652  21.182   1.015  0.1388  0.4868 -0.0218
    1W        W43887   8.393  10.703   7.605  0.1229  0.0789 -0.0269
    1W        W43888   9.313   9.746   1.646 -0.2516 -0.0157  0.2077
    1W        W43889   0.397  26.482   1.205 -0.1392 -0.4157 -0.3207
    1W        W43890  17.057  25.094   7.724 -0.1788 -0.2007  0.3102
    1W        W43891   7.792  22.608   0.318 -0.2030 -0.2060  0.0986
    1W        W43892   7.987  14.307   1.361  0.0153  0.1827 -0.1646
    1W        W43893  13.363   4.093   8.739  0.1567 -0.0456 -0.0390
    1W        W43894   5.668  15.696   6.719  0.0227 -0.1423  0.4120
    1W        W43895   6.622  24.756   8.668  0.0803 -0.1244 -0.1138
    1W        W43896  17.158  10.195   1.685 -0.2468 -0.0587  0.1671
    1W        W43897  22.759  28.571   1.755  0.1426 -0.0749 -0.3763
    1W        W43898  11.409  24.776   2.594  0.1920  0.1545 -0.1088
    1W        W43899  22.966   6.693   2.725 -0.1287  0.0642  0.1437
    1W        W43900  13.320  16.400   7.278  0.0642  0.4003  0.0835
    1W        W43901   8.432   3.467   0.949 -0.1314 -0.1036  0.1669
    1W        W43902   7.591  23.377   0.904  0.2632 -0.0386 -0.0799
    1W        W43903  27.981  21.057   1.675 -0.1141 -0.0084 -0.3127
    1W        W43904  20.079   9.208   2.808 -0.3083  0.1202  0.2762
    1W        W43905  12.767   9.519   1.503  0.0413  0.1196 -0.0465
    1W        W43906  21.568   8.048   0.856 -0.1492 -0.0215  0.3742
    1W        W43907   5.538   1.922   7.198 -0.3024  0.2223  0.1162
    1W        W43908   8.424  14.260   1.581 -0.5208 -0.0531  0.3275
    1W        W43909   8.037   7.023   7.927 -0.0723  0.0213 -0.2059
    1W        W43910  25.810   8.138   0.395 -0.0068  0.3314 -0.1756
    1W        W43911  23.154  20.337   7.688 -0.1094  0.1730 -0.0840
    1W        W43912  11.281  22.058   7.327 -0.0903  0.0072  0.1460
    1W        W43913   0.394  20.838   9.486 -0.1153 -0.2121  0.3077
    1W        W43914   3.571  25.380   0.473 -0.0664  0.2001  0.2846
    1W        W43915  13.110   7.760   2.074  0.0749  0.2932  0.0592
    1W        W43916  27.922  22.034   8.194 -0.1460 -0.1063  0.3672
    1W        W43917   5.376  28.690   0.079 -0.3544  0.2109 -0.1957
    1W        W43918   1.321   1.251   1.155  0.0174 -0.1697 -0.3306
    1W        W43919  27.194  14.426   6.687 -0.1257 -0.1955 -0.1303
    1W        W43920   7.893   4.036   1.589  0.2164 -0.3185 -0.1109
    1W        W43921  27.601  25.897   9.556  0.3269 -0.1624  0.0212
    1W        W43922  28.934  26.746   7.824  0.1711  0.0097 -0.2111
    1W        W43923  27.162  21.512   0.451 -0.0293  0.0266  0.0921
    1W        W43924  18.856  27.624   8.654 -0.0290 -0.0259 -0.2348
    1W        W43925   8.282  19.247   9.356  0.0360 -0.1421 -0.1989
    1W        W43926   2.757  14.666   1.421  0.1412  0.3121  0.1142
    1W        W43927   6.864  27.095   0.480  0.3839 -0.1848  0.0940
    1W        W43928  25.028  17.107   1.287  0.1442 -0.0558 -0.2391
    1W        W43929   0.545  22.211   7.391  0.0466 -0.1137  0.0578
    1W        W43930   8.507   1.606   9.590 -0.0729  0.0586  0.0211
    1W        W43931   3.869  27.124   0.073 -0.2095 -0.2019  0.1767
    1W        W43932  18.243   2.086   7.689  0.1327  0.1741  0.3473
    1W        W43933  10.178   0.805   0.336  0.2021  0.0946  0.1060
    1W        W43934   3.017   5.616   0.310 -0.2861 -0.3075  0.1960
    1W        W43935  22.893  18.508   2.476  0.3072  0.2416 -0.1195
    1W        W43936  22.705   8.546   6.051 -0.0261  0.3520  0.0679
    1W        W43937  17.834  14.799   2.235 -0.0198 -0.3046 -0.1852
    1W        W43938  23.454   9.184   8.479  0.1057 -0.1530  0.1453
    1W        W43939   7.625   8.609   6.992  0.2364 -0.1383 -0.1149
    1W        W43940   3.775  18.945   6.868 -0.0979  0.3330  0.0692
    1W        W43941   5.797   8.138   6.677  0.1827 -0.2373 -0.0537
    1W        W43942   3.858  12.425   7.557 -0.4006 -0.0228  0.3231
    1W        W43943   8.785   5.137   2.011 -0.1883 -0.1209 -0.1431
    1W        W43944   6.981  25.176   0.326 -0.0857  0.2295  0.0681
    1W        W43945   3.737  12.923   7.460  0.0654  0.3116  0.0791
    1W        W43946  18.856   7.476   1.129 -0.0836 -0.1377 -0.0986
    1W        W43947  13.612  16.904   0.077 -0.1661 -0.0224  0.3198
    1W        W43948  24.987  10.752   9.564 -0.0842 -0.0469 -0.1183
    1W        W43949   1.946  23.481   1.802  0.1086 -0.0405  0.1304
    1W        W43950  15.194   8.509   8.422 -0.1302 -0.0970 -0.0896
    1W        W43951   5.495  20.945   0.435 -0.0195 -0.2390 -0.0254
    1W        W43952  26.847   9.907   7.142 -0.1226 -0.1069 -0.1084
    1W        W43953   1.858  11.522   9.481  0.2519  0.2008  0.1543
    1W        W43954   7.916   2.716   1.324 -0.1664  0.3280  0.1510
    1W        W43955  22.686  17.395   0.255 -0.1105  0.1582  0.2501
    1W        W43956   8.951  18.789   1.709 -0.1566 -0.0901 -0.0699
    1W        W43957   5.284  14.560   9.155 -0.0981  0.2110 -0.1477
    1W        W43958   4.990  17.615   2.368 -0.1376  0.1547 -0.0231
    1W        W43959  22.880  25.159   1.127 -0.0315 -0.2025  0.0958
    1W        W43960  19.395  14.176   1.730 -0.1484  0.0518  0.1274
    1W        W43961  28.962   3.096   0.159  0.1325 -0.0885  0.1760
    1W        W43962  28.280  19.727   2.425  0.2441 -0.2594  0.0954
    1W        W43963  16.378  17.961   8.205 -0.2883 -0.0829  0.0533
    1W        W43964  18.781  15.165   8.236 -0.2938 -0.0322  0.0991
    1W        W43965  16.804  24.908   2.055  0.0706  0.0614 -0.0035
    1W        W43966  10.063  27.938   0.862 -0.0807  0.1455 -0.1380
    1W        W43967   6.089  26.255   1.679  0.3465  0.0006 -0.3018
    1W        W43968   2.004  20.049   7.852  0.4957 -0.1029  0.0041
    1W        W43969   6.964   1.205   3.008  0.2576  0.0085 -0.1645
    1W        W43970   5.793  23.419   7.746 -0.0388  0.0271  0.0378
    1W        W43971  13.423   2.755   8.123  0.2305 -0.2585 -0.2400
    1W        W43972  10.671  21.360   9.300  0.1556  0.0029  0.0911
    1W        W43973   7.520  11.347   2.490  0.0813 -0.0858  0.0478
    1W        W43974  24.370  27.698   0.232 -0.0774 -0.1132  0.0910
    1W        W43975  28.805  29.215   8.140 -0.0458 -0.2120  0.1006
    1W        W43976  27.271   2.085   7.157  0.0461 -0.1147 -0.0746
    1W        W43977   2.569  27.109   2.407 -0.1651  0.4392 -0.1569
    1W        W43978   3.194  22.280   9.604 -0.0475 -0.0467 -0.0499
    1W        W43979  29.267   0.116   7.825  0.0567 -0.0883  0.2386
    1W        W43980  28.477  23.444   2.658  0.0169 -0.0814 -0.0717
    1W        W43981  10.064  16.543   9.284  0.1747 -0.0579  0.1184
    1W        W43982  17.431  16.304   8.379 -0.1261 -0.2292  0.1012
    1W        W43983  12.009  17.571   9.190  0.3382  0.0729  0.0308
    1W        W43984   4.978   4.242   2.533 -0.1656 -0.0900 -0.0375
    1W        W43985  26.055  11.072   6.186 -0.0243  0.1783  0.2233
    1W        W43986   5.866   7.796   0.326 -0.2991  0.1010  0.0184
    1W        W43987   1.846   3.314   0.952 -0.0728 -0.0019  0.0495
    1W        W43988  13.724   7.063   8.212 -0.1754  0.4450  0.1366
    1W        W43989   1.643   4.749   1.263 -0.1724 -0.2734 -0.2699
    1W        W43990  21.337   4.504   6.884  0.1678 -0.1061 -0.0767
    1W        W43991   4.667   5.217   3.357  0.0782 -0.0415 -0.0958
    1W        W43992  16.423  15.168   2.092  0.3400 -0.2220 -0.2099
    1W        W43993  14.331  22.964   0.544  0.0209 -0.1157  0.1089
    1W        W43994  22.001  21.522   6.991  0.0626  0.0383 -0.3552
    1W        W43995  13.836   2.251   9.509 -0.0450  0.1541 -0.0073
    1W        W43996   7.266  23.592   2.743 -0.3264 -0.0367 -0.0775
    1W        W43997   5.327   1.991   2.955 -0.0955 -0.0508  0.3990
    1W        W43998  16.293  27.167   1.809 -0.0371 -0.1714 -0.0459
    1W        W43999  14.349  11.122   1.272 -0.1134 -0.0140  0.0259
    1W        W44000  21.790   3.047   0.177 -0.0406 -0.1780  0.0153
    1W        W44001  10.510   9.836   8.017  0.0262 -0.2479  0.2270
    1W        W44002  16.486  13.820   9.475  0.1719 -0.2883  0.0289
    1W        W44003  23.636  20.591   7.702 -0.2421 -0.0907  0.1832
    1W        W44004   1.332  17.385   7.072  0.0329  0.2621  0.3224
    1W        W44005  11.655   4.558   0.984  0.1055  0.0476 -0.0175
    1W        W44006  10.377  21.341   1.898 -0.2164 -0.1826 -0.2403
    1W        W44007  10.261  10.081   9.471  0.0332  0.3127  0.2286
    1W        W44008  18.089  28.759   1.037  0.1468 -0.1701 -0.0221
    1W        W44009   4.944   9.069   6.756  0.1279 -0.3591 -0.1847
    1W        W44010   4.130   9.726   7.021  0.0712  0.0588 -0.0827
    1W        W44011  21.794   8.876   1.460  0.0480 -0.2467 -0.2207
    1W        W44012  23.448  13.954   9.040 -0.0833 -0.2107  0.0732
    1W        W44013  25.669  22.053   9.096 -0.0665  0.2931  0.2432
    1W        W44014   4.172  17.771   9.096 -0.0035  0.1953  0.2113
    1W        W44015  23.097  15.858   6.823 -0.0070 -0.1286  0.1659
    1W        W44016  24.790  12.506   8.103  0.1129 -0.1129 -0.0419
    1W        W44017   7.166  14.564   2.176  0.0645  0.1122  0.1362
    1W        W44018  29.125  19.048   7.170 -0.1492 -0.1056 -0.0377
    1W        W44019  23.846  23.995   2.826  0.1701 -0.2697  0.0201
    1W        W44020  27.760  10.195   7.907  0.0683 -0.4718  0.0718
    1W        W44021  11.196  25.506   1.114  0.0075 -0.3756 -0.1760
    1W        W44022  13.317   3.051   0.381  0.0517 -0.1086 -0.0599
    1W        W44023  17.651  27.865   0.991 -0.0300 -0.2085  0.0031
    1W        W44024   4.865  13.583   2.161  0.0426  0.0758 -0.2519
    1W        W44025  25.393  10.825   9.266  0.0262  0.1871  0.2172
    1W        W44026  18.593  24.035   7.047  0.0232 -0.0083 -0.1271
    1W        W44027  28.795  22.031   0.478 -0.1664  0.1466 -0.1035
    1W        W44028   8.143   6.324   0.579 -0.2114  0.0444 -0.1301
    1W        W44029   5.947  19.427   7.683  0.4718  0.0150 -0.0345
    1W        W44030  18.669  25.452   1.602  0.2230 -0.1479 -0.1403
    1W        W44031  28.662  11.839   7.532  0.0659 -0.0868  0.2412
    1W        W44032  27.705  26.377   1.141  0.2190 -0.1518 -0.0402
    1W        W44033  10.362  15.812   9.223  0.4080  0.0212  0.3443
    1W        W44034  13.459  26.481   3.410 -0.0831  0.0969 -0.1031
    1W        W44035   4.377  12.784   6.312 -0.0443  0.3834  0.2803
    1W        W44036  24.077  12.424   8.710 -0.1017 -0.2455  0.0099
    1W        W44037  24.028  15.341   1.909 -0.1532 -0.0676  0.1747
    1W        W44038  13.875  27.422   0.128 -0.1804  0.2089  0.2469
    1W        W44039   7.239  20.362   9.278  0.3033 -0.0485 -0.0433
    1W        W44040  21.277  15.469   9.463 -0.1313 -0.0871  0.3033
    1W        W44041  13.792   0.370   3.141 -0.1859  0.0463  0.0181
    1W        W44042  21.523   5.166   1.233  0.0471 -0.0342  0.0658
    1W        W44043  26.563   3.163   9.077  0.0943  0.1552  0.4617
    1W        W44044   2.241  20.824   8.403  0.1490 -0.0194 -0.1797
    1W        W44045  16.308  12.750   2.310 -0.0081  0.3733 -0.2036
    1W        W44046  12.116  16.586   0.836  0.1237  0.1085  0.1010
    1W        W44047  22.770  27.873   2.778 -0.2410 -0.0313 -0.1475
    1W        W44048  18.630  20.613   2.771 -0.0092  0.2668 -0.1501
    1W        W44049   3.462   6.510   7.004 -0.0231  0.1554  0.4160
    1W        W44050   9.282  11.285   3.016  0.0571  0.0935  0.1472
    1W        W44051  13.187  15.645   9.610 -0.2918  0.1067 -0.1510
    1W        W44052   3.072  21.737   5.531 -0.0833  0.0184 -0.0329
    1W        W44053   4.362  28.648   7.747  0.2077 -0.0559  0.0921
    1W        W44054  12.479  25.819   3.506  0.1854  0.0737  0.1553
    1W        W44055  27.896  20.249   1.278  0.0544 -0.0911  0.1669
    1W        W44056  16.192  25.063   0.932 -0.1999 -0.0054 -0.0759
    1W        W44057  18.051   4.974   2.073 -0.1639  0.1456  0.0759
    1W        W44058  27.525   7.202   1.288  0.0458  0.2696  0.1740
    1W        W44059   0.085   4.637   5.509  0.1820 -0.2539 -0.2593
    1W        W44060   5.690  19.415   2.801  0.1255 -0.1107 -0.0625
    1W        W44061  11.555  24.626   7.821  0.2761 -0.3723  0.2297
    1W        W44062  10.417  27.840   1.271 -0.2487  0.1066  0.0576
    1W        W44063  28.406  25.900   7.424  0.0851 -0.2491 -0.1142
    1W        W44064   6.426  28.708   1.611  0.1330 -0.1240 -0.1117
    1W        W44065  28.137   0.612   1.193  0.3326 -0.4481 -0.0198
    1W        W44066  19.732   7.306   0.077  0.2060 -0.0737  0.1140
    1W        W44067  28.431  27.861   6.994  0.0906 -0.2415 -0.4576
    1W        W44068   4.046  25.341   9.184 -0.3351 -0.0203  0.2151
    1W        W44069  24.386  17.644   8.476 -0.0841 -0.1930  0.1699
    1W        W44070  23.490   2.792   1.559  0.3245 -0.0914  0.1731
    1W        W44071  12.366  25.338   1.514 -0.1309 -0.2716  0.1132
    1W        W44072  10.009  26.223   7.323  0.0229  0.0304  0.0636
    1W        W44073  29.190   0.265   9.054  0.1156 -0.1203 -0.1556
    1W        W44074  16.839   1.860   0.421 -0.1560 -0.0778  0.3304
    1W        W44075  12.856  24.259   6.326 -0.1672  0.0700  0.1101
    1W        W44076   6.265   1.078   2.181 -0.2027 -0.1693  0.1142
    1W        W44077  22.440   5.237   7.204 -0.0338  0.1849 -0.0601
    1W        W44078   9.007  17.603   9.617  0.1455  0.0003 -0.4451
    1W        W44079  25.799   1.179   9.023  0.1099  0.0220  0.1119
    1W        W44080   2.234  25.948   7.307 -0.0974  0.0094 -0.3964
    1W        W44081  14.826   2.537   9.657 -0.3018 -0.0797  0.1055
    1W        W44082  22.522   8.995   6.366  0.1211  0.0304  0.1627
    1W        W44083  13.711   4.146   1.838 -0.1785  0.0557 -0.0868
    1W        W44084  10.541   9.241   2.277  0.1771 -0.1180 -0.1856
    1W        W44085   0.089   7.767   6.678 -0.1166 -0.0363  0.0525
    1W        W44086   8.289  11.129   8.043 -0.2166 -0.0356  0.1931
    1W        W44087  15.922  22.535   0.451  0.2221 -0.2539  0.0174
    1W        W44088  12.269   5.761   9.480  0.0232 -0.0055  0.0441
    1W        W44089  20.492  14.770   8.194  0.0889  0.2713 -0.0891
    1W        W44090   0.705  10.927   2.389 -0.0637 -0.0147 -0.3003
    1W        W44091   9.484  16.133   0.656  0.1359  0.0399 -0.2133
    1W        W44092  28.104  13.187   8.332  0.1825 -0.1761  0.0768
    1W        W44093   6.244   5.666   9.544  0.0812 -0.0536 -0.0910
    1W        W44094  27.311   5.185   5.981 -0.2449 -0.4030 -0.0726
    1W        W44095   7.733  25.376   1.844  0.3578 -0.2695  0.1518
    1W        W44096  15.667   2.457   8.990  0.1525  0.1617  0.0968
    1W        W44097   3.371  25.213   7.304 -0.0955 -0.1035 -0.0989
    1W        W44098   3.501   2.104   7.571 -0.1987 -0.1351 -0.0909
    1W        W44099  25.045  18.135   2.220 -0.0189  0.0323 -0.0849
    1W        W44100   0.030  15.101   8.445  0.5112  0.1678  0.0605
    1W        W44101  15.760  15.603   0.096 -0.1255  0.0948 -0.2231
    1W        W44102  25.842   2.463   2.022  0.2492  0.1424 -0.1295
    1W        W44103   8.050   5.096   7.718 -0.3390  0.1983  0.3132
    1W        W44104   1.011   1.608   9.003  0.1138  0.1267  0.1649
    1W        W44105   5.335  28.232   1.968  0.0484  0.1737  0.1069
    1W        W44106  25.126  24.310   8.613 -0.4530  0.2600  0.1430
    1W        W44107   7.723   1.882   7.550  0.1731 -0.0051 -0.0213
    1W        W44108  12.066  14.437   7.902 -0.0188  0.1286 -0.0767
    1W        W44109  27.003  15.015   5.894 -0.0837  0.0456  0.2406
    1W        W44110  20.299  24.541   8.291  0.1069 -0.0895 -0.1898
    1W        W44111  25.962   9.712   2.121  0.0412  0.0483 -0.1983
    1W        W44112  27.959  10.525   8.189  0.2651 -0.2021 -0.2513
    1W        W44113  16.912   1.230   9.626 -0.1247 -0.0742  0.1137
    1W        W44114   6.041  20.927   7.067  0.1860  0.0413 -0.0758
    1W        W44115   0.211   7.307   2.027  0.1652 -0.2881  0.1236
    1W        W44116  28.797  23.705   2.314 -0.1236 -0.0633 -0.3317
    1W        W44117  28.651  24.102   7.373 -0.2116 -0.3488  0.0229
    1W        W44118  25.969   4.361   1.254 -0.0429  0.0097  0.2275
    1W        W44119  25.166  24.437   0.292 -0.0738  0.0768  0.0877
    1W        W44120   1.312  15.801   1.006  0.0494  0.1225  0.2146
    1W        W44121   4.890  17.134   2.045 -0.1473  0.2420  0.0829
    1W        W44122   1.076  26.857   1.855  0.0439  0.2203 -0.5418
    1W        W44123  12.968  24.901   8.380  0.0425 -0.1277 -0.0917
    1W        W44124   4.794  11.290   8.805 -0.0292  0.0003  0.1295
    1W        W44125   9.525  27.401   3.793 -0.0671  0.2525  0.2047
    1W        W44126  24.749  13.520   0.506  0.1685  0.0629 -0.0661
    1W        W44127  18.570   4.809   9.046  0.0742  0.1595 -0.0930
    1W        W44128  14.619   2.131   2.988 -0.0919  0.2132 -0.1276
    1W        W44129   5.402  24.839   6.700  0.2911  0.1909 -0.0877
    1W        W44130  13.207   1.510   3.859  0.0377  0.0535  0.0284
    1W        W44131   6.120  24.609   7.405 -0.0243 -0.0748  0.2364
    1W        W44132  21.723  15.607   7.684  0.1862 -0.0758 -0.3437
    1W        W44133  22.232  23.117   2.586 -0.0227  0.0859 -0.1084
    1W        W44134  11.501  24.728   3.077 -0.3548 -0.2673 -0.2122
    1W        W44135  21.061  28.556   7.561  0.0037 -0.2467  0.0912
    1W        W44136  21.480   6.948   0.142  0.0203 -0.1603 -0.0042
    1W        W44137  11.857  16.068   1.041  0.1125  0.0293 -0.0826
    1W        W44138  20.843   5.432   9.533  0.2112  0.2442 -0.0913
    1W        W44139   3.056  25.965   1.244  0.3546 -0.3238  0.0659
    1W        W44140   8.303  28.003   9.349 -0.0936 -0.0015  0.3832
    1W        W44141  20.976  23.774   2.218  0.1682  0.1720  0.1143
    1W        W44142   3.421  13.843   8.557  0.2143  0.0325 -0.3789
    1W        W44143  27.874   8.655   1.718 -0.1053  0.0079 -0.3610
    1W        W44144   8.740  15.181   7.578  0.1958  0.0208  0.0538
    1W        W44145  25.253   1.083   0.510  0.1724  0.3545 -0.0882
    1W        W44146   3.259  20.842   5.559 -0.0485 -0.2332  0.1551
    1W        W44147   2.316  16.530   1.160 -0.2848 -0.0277 -0.1296
    1W        W44148   3.204  24.101   1.196 -0.1160 -0.2123  0.0227
    1W        W44149   9.474   5.170   8.228 -0.0668  0.1323 -0.0640
    1W        W44150   4.946   5.955   6.951 -0.0700 -0.0064 -0.1066
    1W        W44151   2.117  17.343   1.562 -0.1787 -0.0113  0.0544
    1W        W44152  26.613  23.167   2.612 -0.2088  0.0838 -0.0329
    1W        W44153  25.542  10.498   8.721 -0.3108  0.1650  0.3187
    1W        W44154   0.493  28.310   0.579  0.2771  0.3090  0.0009
    1W        W44155  10.861   1.895   2.598  0.0873  0.1920  0.1147
    1W        W44156  28.430  19.543   7.813 -0.1378  0.3963 -0.1306
    1W        W44157   1.464  10.393   2.389 -0.2191  0.0455  0.1105
    1W        W44158  14.751   9.330   7.744  0.0600  0.2053  0.1342
    1W        W44159   1.211  25.849   9.242 -0.4245 -0.1696 -0.2467
    1W        W44160  21.697  12.112   0.263  0.3732 -0.2642 -0.0532
    1W        W44161  26.250   4.712   8.863  0.4150 -0.0109  0.2278
    1W        W44162   7.709   7.058   7.413  0.2103 -0.0652 -0.3337
    1W        W44163  28.374  17.892   2.188 -0.0137  0.1341  0.0216
    1W        W44164   9.310  20.234   6.165 -0.2192 -0.3054  0.0141
    1W        W44165   0.092  12.813   0.064  0.0465 -0.3688  0.1327
    1W        W44166   5.423  23.356   0.302 -0.2510  0.2137  0.3206
    1W        W44167  11.748  26.517   7.068 -0.1356  0.0878  0.1013
    1W        W44168  28.694  13.727   0.966  0.3025  0.1215 -0.1632
    1W        W44169  19.287   1.939   8.335 -0.0313  0.3532  0.1373
    1W        W44170   1.748  12.471   1.132  0.0741  0.1824  0.1071
    1W        W44171  18.472  18.856   2.241  0.2015 -0.0414  0.1155
    1W        W44172   4.999   3.139   8.632 -0.1091  0.1713  0.0161
    1W        W44173   8.842  27.717   2.648  0.0865 -0.0157  0.0422
    1W        W44174  22.885   4.300   0.014  0.3412  0.2333  0.0992
    1W        W44175  16.066   9.525   7.619  0.0122 -0.1378  0.0268
    1W        W44176   5.966  21.145   8.610  0.0342 -0.4477  0.1514
    1W        W44177  11.988  27.918   8.055  0.0300 -0.1339  0.2835
    1W        W44178   9.771   9.901   9.403 -0.0917 -0.1174  0.1442
    1W        W44179   6.074  15.178   2.008 -0.3332  0.1810  0.1436
    1W        W44180  20.501  17.820   9.239  0.2147  0.0362 -0.0186
    1W        W44181   0.204   4.843   8.855 -0.0479  0.4859  0.0819
    1W        W44182   0.490   5.559   0.194  0.1606 -0.2454 -0.1260
    1W        W44183   9.553   5.520   2.266 -0.0400  0.0137  0.4059
    1W        W44184  29.249   4.634   7.152  0.0841 -0.1924  0.0804
    1W        W44185  17.374  27.257   9.480 -0.2086  0.1536 -0.1575
    1W        W44186  24.289   1.711   1.910  0.2435  0.2722  0.0631
    1W        W44187  23.868  23.846   1.965 -0.3174 -0.3458  0.2847
    1W        W44188  22.531  22.027   0.171  0.2325  0.1268  0.0613
    1W        W44189  14.699  27.853   8.135  0.1087 -0.2274  0.0635
    1W        W44190  22.489  17.841   8.090  0.0950  0.0420 -0.0478
    1W        W44191  22.230   3.615   9.318 -0.0497  0.0011 -0.1097
    1W        W44192  20.509  22.866   8.419 -0.0879 -0.1528  0.2662
    1W        W44193  28.002   4.231   2.190 -0.1760 -0.0853 -0.2689
    1W        W44194   6.701  18.438   8.190  0.0819  0.0334  0.1690
    1W        W44195   5.527  21.898   0.681 -0.2302  0.1678  0.0828
    1W        W44196  19.307  28.347   3.447  0.0615  0.0442 -0.3535
    1W        W44197  23.304  25.320   3.323 -0.2185  0.0556  0.0420
    1W        W44198   4.291   3.383   9.344  0.0269  0.0299  0.1290
    1W        W44199  13.581  12.762   8.192 -0.2605 -0.0017 -0.0309
    1W        W44200  22.678  17.293   7.900 -0.0757  0.0283  0.0110
    1W        W44201  27.234   8.426   0.952  0.1747  0.0027  0.0378
    1W        W44202   5.594  27.154   1.544 -0.1594  0.0884  0.0894
    1W        W44203  15.126  16.660   9.160  0.0483 -0.1330  0.0936
    1W        W44204  17.072   7.473   3.535  0.2734 -0.0864  0.2921
    1W        W44205  27.239  22.585   8.694 -0.0242 -0.4167  0.2171
    1W        W44206  27.936  11.189   0.316  0.0676  0.0469  0.2088
    1W        W44207  11.498  21.762   7.631 -0.1964  0.1925 -0.0080
    1W        W44208  10.010  13.841   1.665  0.4446  0.0898  0.2215
    1W        W44209  19.563   8.899   2.582  0.1036 -0.2951 -0.1264
    1W        W44210   4.449  14.760   8.663  0.3389  0.0122  0.1260
    1W        W44211   3.930  12.232   1.532  0.0376  0.1231 -0.0096
    1W        W44212  20.184   6.186   7.286  0.1066 -0.0764  0.1882
    1W        W44213  27.277  11.872   1.728 -0.0903 -0.1034 -0.0650
    1W        W44214   6.722   6.910   9.466 -0.0471  0.1396 -0.3302
    1W        W44215   6.782  21.867   1.001 -0.0911  0.0906 -0.3897
    1W        W44216  11.958  27.842   9.134 -0.0847 -0.1579 -0.4562
    1W        W44217  23.499  10.577   8.448  0.1039  0.1562 -0.0491
    1W        W44218   9.823   3.867   7.768 -0.0433  0.2184 -0.1387
    1W        W44219  21.149  19.786   1.749 -0.1053 -0.1109  0.1810
    1W        W44220  26.920  21.784   8.269 -0.0139 -0.0369 -0.0590
    1W        W44221   7.953  24.413   7.429 -0.0304 -0.1195  0.2785
    1W        W44222  11.803  22.688   7.838 -0.0073 -0.0831  0.2288
    1W        W44223   2.972   5.205   7.430  0.0556 -0.1337 -0.4548
    1W        W44224  13.629  22.197   2.260 -0.3732 -0.0925  0.0508
    1W        W44225   6.022   4.355   2.707  0.2075  0.0982 -0.0988
    1W        W44226  19.625   1.401   2.177  0.3894  0.0481 -0.1999
    1W        W44227   8.957  24.618   0.780  0.0703  0.1774  0.0410
    1W        W44228   1.115  26.687   7.996 -0.2162  0.0376  0.1062
    1W        W44229   6.980  21.413   7.792  0.1637 -0.4515 -0.1863
    1W        W44230  15.768   7.906   8.775 -0.2083  0.0132  0.2737
    1W        W44231  28.215  11.967   9.434  0.0957  0.0838 -0.3074
    1W        W44232  10.249   8.527   8.708  0.0544  0.1108  0.2441
    1W        W44233   7.177   2.563   7.394  0.1426  0.0533  0.0337
    1W        W44234  27.166  23.532   1.057  0.1871 -0.1189 -0.2126
    1W        W44235  11.097  10.339   7.625  0.1622  0.0973  0.2915
    1W        W44236  17.480  15.661   2.290  0.2117 -0.2534  0.3877
    1W        W44237   6.433  20.827   6.632  0.1024 -0.0649  0.0269
    1W        W44238  16.920  19.552   9.205  0.1955 -0.1546  0.1321
    1W        W44239  25.333  18.573   8.912  0.1358 -0.0326  0.1954
    1W        W44240   5.676  14.671   6.777  0.1873  0.3565  0.2065
    1W        W44241  24.280  20.862   8.975 -0.0493  0.0342  0.2637
    1W        W44242  17.558  28.299   6.750 -0.0103 -0.0712 -0.3580
    1W        W44243  18.338  15.116   1.922 -0.3019 -0.1413  0.0143
    1W        W44244  26.332  24.831   0.907  0.2808  0.0028  0.0173
    1W        W44245  12.030  22.899   6.407  0.2973 -0.1788  0.0055
    1W        W44246  12.192  24.543   3.745  0.1679  0.1770 -0.1287
    1W        W44247  19.881   3.901   0.253 -0.3090  0.0078  0.2195
    1W        W44248   7.177  11.042   1.035 -0.1930 -0.2924 -0.2633
    1W        W44249  18.237  29.175   8.199 -0.4050  0.0763  0.0029
    1W        W44250  12.120   5.082   6.779 -0.0908  0.1137  0.2233
    1W        W44251   2.931   7.947   1.567 -0.0187 -0.0567  0.2017
    1W        W44252   2.535   5.846   2.460  0.0188  0.1802  0.3714
    1W        W44253   7.896   1.347   1.761 -0.0447 -0.1408 -0.0860
    1W        W44254  23.832  25.425   1.968 -0.1431 -0.1352 -0.1302
    1W        W44255   3.883   7.106   2.109 -0.0819  0.0245 -0.1763
    1W        W44256  26.744  28.349   7.344 -0.2659 -0.2555 -0.1754
    1W        W44257  11.317  15.556   7.519  0.0430  0.1586 -0.0925
    1W        W44258   8.504  22.887   9.277  0.0400 -0.0343 -0.0310
    1W        W44259  14.235   3.339   3.880 -0.0834  0.0167 -0.3453
    1W        W44260  25.655   5.960   0.700  0.0628  0.1443 -0.0700
    1W        W44261  15.539  22.178   2.213  0.0529  0.1569 -0.1090
    1W        W44262  13.735  21.831   8.445 -0.0447 -0.0053 -0.1594
    1W        W44263  12.620  23.702   2.273 -0.0162 -0.3539 -0.2215
    1W        W44264   8.282  21.171   1.357 -0.1471  0.1445  0.0629
    1W        W44265  29.153  16.646   1.204 -0.0183 -0.0016  0.2517
    1W        W44266  27.311  12.846   0.547 -0.1314 -0.2305 -0.0806
    1W        W44267  21.119  28.691   2.833 -0.0594  0.1190 -0.2875
    1W        W44268  19.571  13.132   1.441  0.0168 -0.2346  0.0550
    1W        W44269  19.201  16.526   8.703 -0.2051 -0.3885  0.2333
    1W        W44270   5.731  12.946   7.733  0.0808 -0.2543  0.2018
    1W        W44271  28.488   2.169   7.631  0.1814  0.1090  0.1413
    1W        W44272  20.891  22.619   7.864 -0.3049 -0.1916 -0.1195
    1W        W44273   3.771  25.989   1.128 -0.2516 -0.2235 -0.1470
    1W        W44274  15.932   4.341   3.399  0.4179  0.0111 -0.3186
    1W        W44275  12.524  17.566   9.076 -0.0195  0.0738  0.0210
    1W        W44276   7.085  15.710   2.007 -0.1727 -0.2328 -0.0935
    1W        W44277  14.681  29.005   8.257  0.0897 -0.1475 -0.1118
    1W        W44278  16.783  22.353   1.143 -0.0019 -0.0112 -0.0743
    1W        W44279  13.933  14.913   1.177 -0.1264 -0.1925 -0.1109
    1W        W44280   7.776  12.562   8.501  0.0323  0.2209 -0.0635
    1W        W44281  16.341   5.320   0.956 -0.0224  0.0397 -0.0009
    1W        W44282   5.408   5.102   1.104 -0.0450 -0.1166  0.1811
    1W        W44283  14.314  27.890   8.588 -0.1469 -0.2376  0.1055
    1W        W44284  11.379  10.745   1.947  0.0413  0.2258  0.0044
    1W        W44285  18.455   2.525   1.460 -0.3201  0.3799 -0.0306
    1W        W44286  28.843   3.667   9.013 -0.1233 -0.0218  0.0298
    1W        W44287  10.975  28.471   1.612  0.1140  0.0105  0.1959
    1W        W44288   8.140   5.842   0.674  0.1620 -0.3258  0.1969
    1W        W44289   3.016   7.512   0.074  0.2087 -0.0404 -0.1003
    1W        W44290   4.157   0.980   8.070  0.2112  0.0335 -0.0373
    1W        W44291  28.714  26.625   2.177  0.3132 -0.0534 -0.2133
    1W        W44292  18.196  12.784   1.710 -0.0118 -0.2013 -0.1859
    1W        W44293  26.909  24.880   7.984 -0.2201 -0.0948  0.0309
    1W        W44294  28.744  14.021   8.074 -0.0157 -0.0542  0.0627
    1W        W44295  25.928  26.387   8.190 -0.0709 -0.2588  0.0200
    1W        W44296   5.116   3.616   6.924 -0.4263 -0.1161  0.1764
    1W        W44297  14.630  20.469   0.407 -0.0500  0.1172  0.1132
    1W        W44298  14.269  24.442   9.314  0.0344 -0.1724  0.3391
    1W        W44299  21.477  14.288   1.648 -0.0257 -0.1302  0.1054
    1W        W44300  13.876  23.752   1.279  0.1572 -0.0073 -0.2253
    1W        W44301  19.552  13.049   0.505 -0.0924 -0.2018  0.2979
    1W        W44302   5.934  22.271   0.626 -0.1578  0.0706 -0.0708
    1W        W44303   2.360  26.895   8.642 -0.1405  0.0357  0.2277
    1W        W44304  16.134  21.245   7.900  0.3617 -0.2030 -0.3892
    1W        W44305  15.530  11.268   0.618 -0.1737 -0.2690 -0.0483
    1W        W44306   2.273   7.703   7.993 -0.0523  0.0478  0.1646
    1W        W44307  10.687  24.397   9.615  0.0109 -0.3715 -0.3655
    1W        W44308  27.663  26.969   1.765 -0.2301  0.2445  0.0260
    1W        W44309  18.650   9.538   7.477 -0.0709 -0.0692  0.2227
    1W        W44310  22.446   1.962   6.363  0.3660  0.0754  0.0651
    1W        W44311  28.465   0.692   1.619  0.1414 -0.0511 -0.1582
    1W        W44312   8.074  14.585   1.790  0.3719  0.0035 -0.0782
    1W        W44313  27.134  14.581   2.064 -0.0789  0.1680 -0.0165
    1W        W44314  13.168  18.921   7.935 -0.1545 -0.2121  0.0010
    1W        W44315   8.290   7.033   3.538  0.2070 -0.2197 -0.0485
    1W        W44316  11.426  26.472   0.134 -0.0833 -0.1241 -0.1848
    1W        W44317  24.838  17.513   6.840  0.1790 -0.2451 -0.0116
    1W        W44318   1.898  25.305   7.610  0.1104 -0.0377  0.0579
    1W        W44319  17.875  22.566   9.426  0.0273  0.0316  0.0800
    1W        W44320  16.402  19.369   8.507  0.1767 -0.2816  0.0957
    1W        W44321   1.575  19.476   0.290 -0.1131 -0.1636 -0.2739
    1W        W44322  20.170  28.875   2.949 -0.4126  0.1095 -0.0287
    1W        W44323  24.809  22.110   0.869 -0.1326  0.1498 -0.0573
    1W        W44324  27.768  24.268   7.286  0.2158  0.1916 -0.1915
    1W        W44325   8.000   2.182   0.571 -0.3140  0.0020  0.0815
    1W        W44326  16.551   0.459   7.719  0.0234 -0.0603  0.1608
    1W        W44327   9.308   9.606   0.544  0.1091 -0.0477  0.0976
    1W        W44328  25.016  16.720   0.424 -0.0509 -0.2198  0.0507
    1W        W44329   1.623  12.082   1.501  0.1993 -0.2833  0.0635
    1W        W44330   0.377   0.394   9.078 -0.0425  0.0396 -0.0535
    1W        W44331   8.514  28.326   9.680 -0.2262 -0.0010  0.1244
    1W        W44332   2.249  26.916   9.356  0.0276 -0.0604 -0.0441
    1W        W44333   3.584  28.629   8.336 -0.2110 -0.0003  0.0086
    1W        W44334   5.231  12.253   3.020  0.2065  0.2332 -0.1404
    1W        W44335  13.030  16.123   9.283 -0.1703 -0.0803  0.3674
    1W        W44336   1.049  17.255   2.351  0.0924  0.0719  0.2624
    1W        W44337  25.648  24.117   8.077  0.0238 -0.1143  0.0902
    1W        W44338  12.866   0.823   9.364 -0.1562 -0.1581 -0.4990
    1W        W44339   3.568   7.866   2.962  0.0149  0.2158 -0.4068
    1W        W44340  24.426   0.209   6.361  0.0662  0.3121  0.0366
    1W        W44341   5.783  28.180   0.277  0.0362  0.4116  0.0033
    1W        W44342  22.432   7.817   2.014  0.1107  0.0836  0.1855
    1W        W44343  17.170   3.636   3.544 -0.0570  0.1356  0.2370
    1W        W44344  28.820  28.217   9.024  0.1963  0.0687  0.0049
    1W        W44345  25.697  10.411   6.832  0.2806  0.1879  0.0084
    1W        W44346  18.541  18.326   2.207  0.1902 -0.0134  0.4236
    1W        W44347   0.922   9.157   6.776 -0.3562 -0.2386 -0.1177
    1W        W44348  27.653  14.386   9.449 -0.3971 -0.1068 -0.1658
    1W        W44349  20.042  13.162   0.361  0.3853  0.2026  0.0949
    1W        W44350   7.387  23.962   2.349 -0.1517  0.0957  0.0898
    1W        W44351  15.880  21.719   8.561 -0.1207  0.1403  0.0595
    1W        W44352   3.402  19.411   2.183 -0.1703  0.1328  0.0897
    1W        W44353  25.267   4.112   0.659 -0.0798 -0.3561  0.0856
    1W        W44354   6.106  19.881   5.336 -0.0540  0.1173  0.1547
    1W        W44355  27.724   2.014   1.388 -0.3158  0.0902  0.0868
    1W        W44356  23.324   5.203   7.999 -0.2768 -0.0942 -0.0113
    1W        W44357  26.058  23.501   9.661  0.1090  0.0145  0.0512
    1W        W44358  21.706  10.679   0.595 -0.0648 -0.1029 -0.4786
    1W        W44359  12.020  15.074   0.158 -0.0583 -0.0406 -0.2566
    1W        W44360   0.978  25.123   6.539  0.0708  0.0429 -0.2655
    1W        W44361   9.194   4.536   8.923 -0.1655  0.3384 -0.0823
    1W        W44362   7.728  26.629   7.745 -0.0448 -0.1922 -0.3839
    1W        W44363   2.374  22.849   6.076 -0.1873  0.3540 -0.0926
    1W        W44364   4.471  17.611   0.178 -0.2885  0.0394 -0.1618
    1W        W44365  27.809   1.800   8.264  0.0342  0.1475  0.1483
    1W        W44366   7.895  27.068   7.564 -0.3940  0.0812  0.0271
    1W        W44367  21.541   4.054   6.848 -0.0766 -0.1729 -0.0975
    1W        W44368  21.660  18.252   8.680  0.1355  0.2004  0.1532
    1W        W44369   9.300  20.004   8.535  0.1054 -0.1272  0.0908
    1W        W44370  13.804   0.590   8.526 -0.2673  0.1785 -0.2199
    1W        W44371   2.124  24.277   1.205  0.1862 -0.1124  0.0240
    1W        W44372   1.244  18.938   7.608 -0.0423 -0.2093  0.1780
    1W        W44373   7.266  28.856   2.796  0.1169 -0.1931 -0.0279
    1W        W44374  15.677  25.721   2.781 -0.2960  0.0732 -0.0710
    1W        W44375  25.657  11.027   8.844 -0.1678 -0.0063 -0.1267
    1W        W44376  26.727   0.359   6.204  0.1515 -0.2557  0.1428
    1W        W44377   6.307  20.643   8.692 -0.1225 -0.4992 -0.1935
    1W        W44378   4.903  25.663   9.021 -0.0381 -0.1256  0.1721
    1W        W44379   7.144   7.497   8.303  0.0958  0.0034  0.0765
    1W        W44380  26.100   8.665   7.287  0.1128  0.3852 -0.0795
    1W        W44381  27.257  22.552   0.871  0.2547  0.1513 -0.0615
    1W        W44382  21.157  10.237   8.473 -0.1544 -0.2772 -0.0705
    1W        W44383  28.440  14.604   1.849 -0.1425  0.1808 -0.1791
    1W        W44384  22.993   7.222   2.821  0.3446 -0.0455 -0.1145
    1W        W44385  14.425  17.379   2.703 -0.0812  0.1152 -0.3618
    1W        W44386  19.148  13.774   1.063 -0.0889  0.3671  0.2581
    1W        W44387  20.201  22.806   1.119  0.0643  0.3779 -0.1696
    1W        W44388  16.342  15.234   1.483 -0.2385 -0.0217  0.1506
    1W        W44389   3.611  20.636   0.877 -0.0776 -0.1083  0.1635
    1W        W44390  17.524  25.949   1.139 -0.0189 -0.0368  0.1686
    1W        W44391  10.044  25.635   8.152 -0.1693  0.0165 -0.0238
    1W        W44392   6.150  11.512   1.584 -0.3594  0.2107  0.1733
    1W        W44393  27.138  27.407   1.736 -0.1483  0.0035 -0.0762
    1W        W44394  12.908   8.037   8.004 -0.0576  0.2562 -0.1580
    1W        W44395   9.832  19.186   9.304 -0.1533  0.1172 -0.2246
    1W        W44396  27.081  14.649   1.056  0.0442 -0.1172  0.0203
    1W        W44397   4.015   8.647   8.194  0.1179  0.1229 -0.1485
    1W        W44398  11.566   4.091   1.182  0.0794  0.1713 -0.2992
    1W        W44399  17.845   4.115   1.924 -0.1337 -0.3511  0.1004
    1W        W44400  18.806  18.568   8.585 -0.1423  0.0323  0.0260
    1W        W44401  26.380  19.352   8.464  0.0843  0.1575 -0.2354
    1W        W44402  26.020  13.367   5.594  0.2177 -0.0854 -0.0262
    1W        W44403  21.279   6.349   9.517  0.0930 -0.3255  0.1076
    1W        W44404  17.136   0.688   1.583  0.1033  0.1764  0.0439
    1W        W44405   4.475   4.399   1.216 -0.2130  0.2663  0.0219
    1W        W44406   0.666  21.041   6.776  0.0581 -0.0980  0.2277
    1W        W44407  27.636   7.860   2.160 -0.0018  0.0493 -0.0589
    1W        W44408  25.606   0.616   7.851  0.1545  0.1105  0.0697
    1W        W44409  17.100   2.217   7.621  0.3066 -0.4647 -0.5069
    1W        W44410   5.581   8.267   3.218  0.0800 -0.0999 -0.0255
    1W        W44411  23.217  17.303   7.185 -0.1537 -0.0261  0.2252
    1W        W44412  14.917  20.152   9.294  0.2392  0.2286 -0.0844
    1W        W44413  26.573  16.405   5.391 -0.1468  0.1231  0.3551
    1W        W44414   4.133  28.201   1.600  0.2527  0.1142 -0.1456
    1W        W44415  22.729  16.908   8.698  0.3408  0.1740 -0.2559
    1W        W44416  17.846   5.318   2.421 -0.0784  0.2291 -0.1855
    1W        W44417   9.132   3.330   6.851 -0.0168  0.3548  0.1734
    1W        W44418  25.675  23.499   8.848 -0.1362  0.0979  0.3720
    1W        W44419  17.571   5.557   1.570  0.0345 -0.0027 -0.1426
    1W        W44420   2.453   5.498   8.767  0.2497 -0.1562  0.0225
    1W        W44421  18.863   6.160   1.145  0.0505  0.2900 -0.0104
    1W        W44422  24.816  28.397   9.303  0.0832  0.0359 -0.2057
    1W        W44423  18.480   4.804   7.091 -0.0285  0.1847 -0.2049
    1W        W44424  17.589   1.695   0.471  0.0893  0.1470 -0.4070
    1W        W44425  22.215   5.471   8.459  0.1419 -0.2504 -0.1813
    1W        W44426  13.992  22.452   2.608 -0.2569 -0.1153  0.1606
    1W        W44427  18.480  17.220   1.572 -0.2870 -0.0671 -0.3911
    1W        W44428   4.504  17.351   5.473 -0.1497 -0.1262  0.0967
    1W        W44429   4.090   1.150   0.705  0.1192 -0.0096  0.3676
    1W        W44430  13.802  23.573   6.596  0.0695 -0.0007 -0.3070
    1W        W44431   3.432  14.872   6.339  0.0264  0.1076  0.0428
    1W        W44432   0.825  28.697   7.697  0.0898 -0.1856 -0.1240
    1W        W44433  13.595  26.633   8.821 -0.0864 -0.1494  0.3736
    1W        W44434  18.892   9.266   8.683 -0.1994 -0.0320 -0.2425
    1W        W44435  10.762  14.387   1.417 -0.1239  0.3931 -0.2679
    1W        W44436  15.190   9.532   7.931 -0.0068 -0.1613 -0.1745
    1W        W44437  10.357   5.120   3.071  0.1427  0.2336 -0.4914
    1W        W44438   6.555  28.848   9.657 -0.3185 -0.0408 -0.1713
    1W        W44439  23.302  19.049   9.259 -0.0535 -0.1298  0.1146
    1W        W44440   1.222   7.361   8.835  0.0404  0.0172 -0.0529
    1W        W44441  10.737   4.607   9.473 -0.1117  0.2566 -0.3673
    1W        W44442   1.431  13.094   6.423 -0.3454  0.0260  0.1490
    1W        W44443  12.128   9.670   9.075  0.1405  0.1502  0.2038
    1W        W44444  14.088  14.858   7.361 -0.1192 -0.1647 -0.2145
    1W        W44445  25.590   6.397   7.865  0.0652 -0.0874  0.2380
    1W        W44446  16.901   2.777   2.435 -0.2377  0.1103 -0.1771
    1W        W44447  17.861  25.976   2.401 -0.0135  0.0209 -0.0372
    1W        W44448  24.111   8.347   6.325 -0.0476 -0.1498 -0.1073
    1W        W44449  21.969   5.148   8.130 -0.3886  0.1042  0.0863
    1W        W44450  28.417  27.416   7.737 -0.1076  0.0869 -0.3201
    1W        W44451  27.711   3.178   1.970 -0.1019 -0.0655 -0.2203
    1W        W44452  17.272  16.395   0.248  0.0201  0.3125  0.3243
    1W        W44453  22.480   5.508   6.694  0.0396 -0.4274  0.2325
    1W        W44454   2.158  26.232   0.570 -0.1605  0.0383 -0.0282
    1W        W44455  12.548  14.723   7.953  0.1905  0.2129  0.2465
    1W        W44456  22.930  12.717   2.047 -0.3605  0.3943 -0.1176
    1W        W44457  20.868   0.088   9.596 -0.0569  0.0059 -0.3430
    1W        W44458  28.148  17.260   9.079 -0.1338  0.3651  0.2310
    1W        W44459   7.859   0.986   2.576  0.1735  0.4109 -0.0132
    1W        W44460  28.587   9.952   1.843  0.0402  0.1177  0.2897
    1W        W44461  28.381  24.032   8.391  0.0896 -0.0915 -0.1568
    1W        W44462  17.783   6.459   0.231 -0.1134 -0.1134 -0.0760
    1W        W44463  16.277   3.343   6.833 -0.1202  0.0251  0.2330
    1W        W44464  25.172   4.232   8.362  0.0239 -0.1342 -0.0084
    1W        W44465  22.707  27.166   0.587  0.0299 -0.1133 -0.0724
    1W        W44466   3.897  11.059   8.170  0.1131 -0.1420 -0.2391
    1W        W44467   8.425  15.054   8.716  0.0027 -0.0990 -0.1531
    1W        W44468   8.891   5.011   9.571 -0.0024  0.3433  0.0000
    1W        W44469   4.162   8.777   8.686 -0.0537  0.2589  0.0764
    1W        W44470  15.066  26.142   2.016  0.2239 -0.1502  0.1485
    1W        W44471  29.257  27.615   9.207 -0.0658  0.1638 -0.1685
    1W        W44472   0.609   7.764   7.893  0.1098  0.2451  0.1290
    1W        W44473  22.313   0.849   0.824 -0.4325  0.2857 -0.3381
    1W        W44474  14.901  27.184   1.413 -0.1871 -0.2475 -0.5451
    1W        W44475   4.456  23.107   7.228 -0.0315  0.0447 -0.0912
    1W        W44476  21.278   3.065   0.308  0.2233 -0.0543  0.1023
    1W        W44477  13.435  22.792   9.235  0.2135 -0.1436  0.0134
    1W        W44478   1.484  18.016   1.443 -0.0341  0.1393  0.1834
    1W        W44479   3.675   4.168   7.185  0.0228 -0.1315  0.0153
    1W        W44480  26.812  27.908   1.888  0.0012 -0.1026  0.1717
    1W        W44481   9.731  24.555   0.081 -0.0246  0.0116  0.1761
    1W        W44482  27.927  27.070   2.600  0.0474 -0.1748  0.4104
    1W        W44483   4.145  16.028   7.860  0.1677  0.0082  0.2174
    1W        W44484  21.155  13.194   1.874  0.1214 -0.0324 -0.0262
    1W        W44485  21.023   9.534   8.106 -0.1951 -0.0407  0.2046
    1W        W44486  22.195  14.773   7.866  0.5715 -0.4110 -0.0349
    1W        W44487  18.474   1.637   7.463 -0.2985 -0.1781  0.1353
    1W        W44488  23.398   4.696   7.693  0.1448 -0.0312  0.2189
    1W        W44489  19.498  19.323   1.626 -0.0252 -0.2942  0.1940
    1W        W44490  11.663   6.357   0.954 -0.1027 -0.1875 -0.2478
    1W        W44491   8.437   5.674   8.134  0.0689  0.4211  0.0304
    1W        W44492  15.805   1.443   0.608 -0.0997 -0.0178 -0.0900
    1W        W44493  25.902  22.670   3.518 -0.1366 -0.1659  0.4090
    1W        W44494  16.248  28.644   7.695 -0.1445  0.0601  0.5473
    1W        W44495  17.430  28.501   8.216  0.2070  0.1442  0.2612
    1W        W44496   0.818   6.102   2.239  0.1137 -0.2410 -0.1258
    1W        W44497   2.746   1.119   3.397  0.1763 -0.1927 -0.0293
    1W        W44498   2.671  28.119   6.790  0.0674  0.0056 -0.1565
    1W        W44499   6.307  13.353   7.133 -0.0068  0.0605 -0.2294
    1W        W44500  24.130  17.423   1.785 -0.0060  0.2610 -0.0279
    1W        W44501  10.536   5.792   2.139  0.1456  0.3564 -0.0581
    1W        W44502  11.796  23.580   2.746 -0.0129 -0.0753  0.2511
    1W        W44503  25.027  25.485   0.587 -0.1042 -0.3686 -0.2976
    1W        W44504  21.789  24.776   7.329 -0.1071  0.1815 -0.1138
    1W        W44505   9.640  22.822   1.781 -0.1365  0.0087  0.0934
    1W        W44506  19.577   8.508   2.255  0.1231  0.0507 -0.0371
    1W        W44507   9.209  28.927   1.188  0.1534 -0.2660 -0.3068
    1W        W44508   9.148  12.343   8.061  0.1207  0.0143  0.4858
    1W        W44509  28.098   6.733   1.072  0.1290  0.3702  0.0179
    1W        W44510  16.554  27.336   7.336  0.1156  0.0485  0.1455
    1W        W44511  21.884  23.919   1.662  0.2058 -0.0347  0.0985
    1W        W44512   0.548  10.469   7.173  0.0386 -0.1003  0.0828
    1W        W44513   0.786  24.717   0.992  0.3292 -0.1677  0.0481
    1W        W44514  21.447  11.221   6.059  0.0870  0.2030 -0.1146
    1W        W44515  11.953  13.896   8.807 -0.0065  0.1807 -0.0271
    1W        W44516  10.702  24.393   6.909 -0.0834  0.0168  0.2350
    1W        W44517   1.347   8.498   1.447 -0.0724  0.2658  0.1892
    1W        W44518  26.862  17.305   8.625  0.4276 -0.0533 -0.0544
    1W        W44519  24.278   6.318   6.793 -0.2524  0.2861  0.0403
    1W        W44520  10.394  25.007   6.265  0.2424 -0.0827 -0.0362
    1W        W44521   3.084  15.544   7.282 -0.1338 -0.2774  0.1923
    1W        W44522  11.499  18.715   2.350  0.1616 -0.2526  0.1293
    1W        W44523  19.902   2.690   8.494 -0.1707 -0.3339 -0.1076
    1W        W44524  12.230  14.139   0.934  0.0989 -0.0418 -0.0357
    1W        W44525  11.589  28.720   9.293 -0.1636 -0.0031  0.3027
    1W        W44526  19.033  15.751   1.132 -0.0033 -0.0478  0.2787
    1W        W44527  13.991   0.554   2.142  0.2369 -0.0391 -0.1336
    1W        W44528  15.531  20.896   1.897 -0.0161  0.0804 -0.3440
    1W        W44529  28.674  29.353   2.821 -0.2069 -0.2664 -0.2598
    1W        W44530  16.873  12.616   0.013 -0.2170  0.1641 -0.2184
    1W        W44531  22.145  19.626   0.360  0.0834  0.2584  0.0198
    1W        W44532  27.168  14.985   1.411  0.3523  0.1751 -0.1569
    1W        W44533   8.703   6.988   6.803 -0.0150  0.1456  0.0895
    1W        W44534  15.805  24.402   8.104  0.0014 -0.2299  0.1806
    1W        W44535  18.310  18.245   0.397 -0.1399 -0.0418  0.2889
    1W        W44536   2.989  13.618   6.169 -0.1740  0.1941  0.2439
    1W        W44537   3.166   1.100   7.297 -0.3741  0.0212  0.1350
    1W        W44538   8.628  12.328   8.820  0.3620  0.1411  0.1814
    1W        W44539  21.494   8.611   7.218 -0.0321  0.0234 -0.0892
    1W        W44540  12.980   0.409   2.524 -0.3641 -0.0993 -0.2861
    1W        W44541  16.633   7.579   0.875 -0.2514 -0.1403  0.1254
    1W        W44542  20.174   9.856   0.503  0.0539 -0.0289  0.0274
    1W        W44543  14.907   1.795   7.795 -0.1110  0.2264 -0.0086
    1W        W44544  12.533  16.889   8.242  0.0120  0.0188 -0.0789
    1W        W44545  11.831  11.247   7.751  0.1071 -0.0900  0.2094
    1W        W44546  21.937  22.268   9.154 -0.0211 -0.0140 -0.3538
    1W        W44547  20.333  14.365   6.596  0.1462 -0.3305  0.0797
    1W        W44548  20.938  25.640   8.394 -0.2210  0.0320  0.1900
    1W        W44549  10.598  25.847   3.343  0.1438 -0.0139  0.0341
    1W        W44550   2.138   3.941   2.678 -0.0175 -0.0129 -0.0337
    1W        W44551  19.721  20.630   1.914  0.2618  0.0113  0.1927
    1W        W44552  16.007  18.741   1.818  0.0611  0.1879  0.0848
    1W        W44553   6.290  19.981   6.907 -0.5499 -0.0961  0.0559
    1W        W44554   0.740  24.334   9.500  0.2026 -0.1390  0.1022
    1W        W44555   4.797  11.647   1.601  0.0471 -0.1021  0.1528
    1W        W44556  20.624   5.902   7.062 -0.0182 -0.3769 -0.1774
    1W        W44557  23.756   5.574   9.135 -0.0737 -0.1410  0.0901
    1W        W44558  14.552  22.466   0.087  0.4549  0.2548  0.1268
    1W        W44559  26.415  26.623   6.922 -0.1556  0.2371  0.1474
    1W        W44560  19.881  24.106   9.398  0.0992  0.1387  0.0117
    1W        W44561  11.151  20.975   1.375  0.1843  0.2318  0.0313
    1W        W44562  25.109  27.347   6.904  0.4029 -0.0864 -0.3922
    1W        W44563   9.599  19.747   0.822 -0.1895 -0.0005  0.1014
    1W        W44564  14.763  18.770   0.710  0.0556 -0.0789  0.2250
    1W        W44565   3.167  18.092   1.970 -0.2567  0.2343  0.2249
    1W        W44566  23.928  21.043   7.749  0.0693 -0.1303 -0.0963
    1W        W44567   6.087   6.386   2.408  0.1337 -0.0954  0.1717
    1W        W44568  24.697   3.012   9.109 -0.1743  0.0078  0.1402
    1W        W44569  21.751  25.221   8.925 -0.4076  0.2573  0.0086
    1W        W44570   9.445  14.655   7.496  0.1147 -0.2174 -0.1329
    1W        W44571  28.896   7.374   9.025  0.3119 -0.0224  0.2343
    1W        W44572   2.970  25.392   2.286 -0.3599  0.2033 -0.1908
    1W        W44573  20.120  18.762   8.270 -0.3917 -0.0945 -0.0731
    1W        W44574  21.622  26.877   2.591  0.0321 -0.2556 -0.0234
    1W        W44575  17.845  11.775   0.048 -0.1640 -0.0554 -0.1687
    1W        W44576  14.153   0.868   8.186  0.1311  0.1979  0.1258
    1W        W44577   4.370  17.405   8.740  0.4054 -0.0095  0.0877
    1W        W44578  28.759   4.790   9.298 -0.2060  0.0966  0.2838
    1W        W44579  22.586   5.720   8.920 -0.3637 -0.1774 -0.1129
    1W        W44580   5.694  21.682   9.511  0.0614  0.1420  0.1628
    1W        W44581  28.137   7.944   1.927  0.0244 -0.0703 -0.0974
    1W        W44582  14.714  14.434   1.691  0.0871 -0.0412 -0.0238
    1W        W44583  11.635   0.742   9.195 -0.0242 -0.0010 -0.3853
    1W        W44584  25.235  21.362   0.991  0.0471  0.4255 -0.1168
    1W        W44585  25.214  27.964   1.911  0.3687 -0.1584 -0.2430
    1W        W44586   8.159  15.257   7.008  0.0702 -0.1215 -0.1616
    1W        W44587  21.082  13.190   2.429  0.2929 -0.0637  0.1020
    1W        W44588  12.489   1.857   1.159  0.2026 -0.1353  0.3655
    1W        W44589  16.320  19.679   2.484  0.2439  0.0302 -0.0626
    1W        W44590   3.947   1.829   7.127  0.0969 -0.1874 -0.3258
    1W        W44591  20.489   6.625   7.799 -0.1514  0.3123 -0.2827
    1W        W44592  17.751   4.833   9.021 -0.1115 -0.0953 -0.1762
    1W        W44593  11.473  25.482   8.079  0.1431 -0.0066 -0.0993
    1W        W44594  19.474  16.536   0.551  0.0181 -0.1893  0.3237
    1W        W44595  22.908  20.513   3.680  0.1425 -0.0335  0.1504
    1W        W44596  13.211   2.725   2.441  0.2768 -0.1761 -0.2417
    1W        W44597  14.266  27.485   8.319  0.2951 -0.3963 -0.1344
    1W        W44598  16.147   9.594   8.105 -0.1266 -0.1653 -0.0280
    1W        W44599  21.394  16.132   7.633 -0.0394 -0.0198  0.1880
    1W        W44600   8.899  16.764   0.870 -0.0166  0.3559  0.0579
    1W        W44601   0.278   7.935   6.261  0.0763  0.2703  0.5013
    1W        W44602   0.139   1.445   0.580 -0.2062 -0.0639 -0.0256
    1W        W44603   6.495  15.695   7.250  0.1754 -0.0838  0.1746
    1W        W44604  13.716   7.528   8.302  0.1128  0.0778 -0.1057
    1W        W44605   7.088  15.626   0.868  0.0597  0.2109  0.0244
    1W        W44606  22.447   0.153   8.001  0.2470  0.5323 -0.2076
    1W        W44607  28.587  26.364   7.603 -0.1980  0.0883  0.0954
    1W        W44608   1.874  28.930   8.214 -0.4090 -0.1124 -0.0422
    1W        W44609  26.804   1.853   1.090  0.2386 -0.0704  0.3308
    1W        W44610   3.764  22.999   8.232  0.0484 -0.1269  0.2690
    1W        W44611  20.528   9.906   8.765  0.0773 -0.1505  0.4612
    1W        W44612  26.254   0.656   6.931  0.0485  0.2348  0.2860
    1W        W44613  20.698  26.377   9.312 -0.1628 -0.3155  0.2779
    1W        W44614  18.781  13.450   9.118  0.2195 -0.0090  0.0497
    1W        W44615   3.814   8.473   8.624 -0.1389 -0.0214  0.2798
    1W        W44616  18.915   9.726   2.898 -0.1832  0.0894  0.3410
    1W        W44617  20.626   4.659   9.479 -0.0035  0.2373  0.1420
    1W        W44618  17.097  21.113   7.846  0.0453 -0.0262 -0.0558
    1W        W44619   4.410  24.740   0.164 -0.0810 -0.0720 -0.2875
    1W        W44620  11.108  28.320   0.210 -0.1481 -0.0689  0.1743
    1W        W44621  26.660  25.199   9.461 -0.2413 -0.3766  0.1695
    1W        W44622  20.204  18.979   6.987 -0.0219  0.1307  0.0101
    1W        W44623  13.987  10.725   2.459 -0.0684 -0.1764  0.1656
    1W        W44624  12.178  21.809   1.162  0.1811  0.0643 -0.0108
    1W        W44625  23.497  24.252   1.008  0.0800  0.2895 -0.1478
    1W        W44626   1.107   2.349   2.511  0.1629 -0.0838  0.0243
    1W        W44627  28.889  24.516   6.276 -0.2032 -0.0197  0.1524
    1W        W44628  26.910  16.988   0.255  0.0924 -0.2845  0.1003
    1W        W44629  23.505  15.092   9.073 -0.0759 -0.1710  0.2389
    1W        W44630  16.250  11.226   0.402  0.1494 -0.0588  0.3450
    1W        W44631  16.317  24.901   0.236 -0.2433  0.0331  0.0274
    1W        W44632  10.190  21.982   0.153  0.2808  0.0426  0.1503
    1W        W44633   9.848  28.209   3.470 -0.0995  0.0090  0.5455
    1W        W44634  15.066  26.496   3.142  0.1181 -0.2695 -0.2730
    1W        W44635  21.640  12.765   9.523  0.0524  0.1051  0.4538
    1W        W44636   1.250  27.369   9.659 -0.2881 -0.1869  0.3086
    1W        W44637   8.569   6.153   9.452  0.4366  0.0804 -0.2027
    1W        W44638  17.098  12.031   2.860 -0.1332  0.3049  0.2279
    1W        W44639   6.335   3.878   8.801  0.2200  0.0439  0.0097
    1W        W44640  10.783  22.979   1.398  0.1583 -0.2515  0.0518
    1W        W44641  22.534  23.533   2.449 -0.0375 -0.0075  0.2539
    1W        W44642   5.748  22.139   5.736  0.0238  0.2527 -0.0458
    1W        W44643   9.977  12.559   8.331  0.3842  0.0201  0.0348
    1W        W44644  13.595  20.469   9.026  0.0206  0.3020  0.1840
    1W        W44645  19.153  21.649   9.186 -0.0805  0.1699  0.4253
    1W        W44646  12.726   5.123   1.796  0.0695 -0.0250 -0.0313
    1W        W44647  22.360  28.800   6.987 -0.2195  0.2002 -0.1565
    1W        W44648  18.631  24.970   0.229 -0.1422  0.2453 -0.1459
    1W        W44649   2.068  12.717   6.811  0.2150 -0.0674  0.0894
    1W        W44650   7.248  17.779   1.109 -0.0507 -0.2644  0.1073
    1W        W44651  13.059   2.101   3.242 -0.1339 -0.0799  0.3170
    1W        W44652  25.926  25.240   7.736 -0.0427  0.0173  0.0022
    1W        W44653  12.437  23.259   6.508  0.3945 -0.1343  0.0098
    1W        W44654   7.688  26.599   9.537 -0.0188 -0.0778 -0.1631
    1W        W44655   6.848  19.377   9.435 -0.0085 -0.1687  0.0550
    1W        W44656  15.829  23.718   1.641 -0.0657  0.0348  0.1766
    1W        W44657   9.493  12.631   7.541  0.0596  0.0530 -0.4646
    1W        W44658   9.178   8.045   2.589  0.1566  0.0204  0.0903
    1W        W44659   9.972   9.034   2.093  0.0429  0.1768 -0.2371
    1W        W44660  11.583  19.626   0.043 -0.1596 -0.2032 -0.1718
    1W        W44661  19.430   0.425   8.258  0.1600  0.0930 -0.2176
    1W        W44662   9.273   1.281   1.481  0.1719 -0.0821  0.0628
    1W        W44663  14.219   4.015   2.640  0.1901 -0.3651 -0.1411
    1W        W44664   7.494  14.866   7.933 -0.0163  0.2430 -0.0703
    1W        W44665  13.188  25.287   1.925  0.2782 -0.1398  0.0714
    1W        W44666  26.160  18.214   7.697 -0.2449 -0.0049  0.0520
    1W        W44667  19.290   7.365   9.410 -0.3227  0.2186  0.1706
    1W        W44668   1.553   1.945   2.247 -0.0300 -0.0234 -0.2345
    1W        W44669   9.855   3.725   3.176 -0.0217 -0.3142  0.0300
    1W        W44670   9.828  13.991   9.162  0.1328  0.0186 -0.0549
    1W        W44671   9.972  26.594   1.544  0.1551  0.2460 -0.2800
    1W        W44672  20.694  18.320   1.513 -0.1266 -0.1345  0.1500
    1W        W44673  21.555  12.804   8.715  0.1120  0.0476 -0.1213
    1W        W44674  26.362  20.656   9.280  0.1534 -0.0464  0.0791
    1W        W44675  16.702   8.079   1.673 -0.1303  0.4333  0.3735
    1W        W44676  19.009   7.591   1.585 -0.2061  0.1829 -0.2226
    1W        W44677   6.232   8.649   2.659 -0.0127 -0.0261  0.0139
    1W        W44678  18.010  18.933   2.291 -0.0600  0.0277 -0.1311
    1W        W44679  17.912   2.865   2.848 -0.1855  0.0429 -0.0075
    1W        W44680  23.095  26.894   8.495  0.0960 -0.1839  0.0009
    1W        W44681  13.572  27.404   2.372 -0.2279 -0.1999  0.0613
    1W        W44682  14.559  10.759   9.402  0.0794 -0.2325  0.1666
    1W        W44683  18.655   4.735   2.190  0.1527  0.0308  0.1513
    1W        W44684  10.255  19.368   1.478 -0.0137  0.1600  0.0233
    1W        W44685  19.651  26.660   6.549 -0.0301  0.0951 -0.0004
    1W        W44686   6.579   8.833   9.350 -0.0376 -0.1022 -0.2447
    1W        W44687  23.690  23.747   8.086 -0.5086  0.1686 -0.0502
    1W        W44688  23.379  15.016   6.563 -0.1910 -0.0548 -0.0323
    1W        W44689  17.589   5.700   8.097 -0.0041  0.3277 -0.2134
    1W        W44690   9.653  21.039   0.886 -0.2134  0.0807  0.0591
    1W        W44691  29.004   3.866   1.443 -0.0003  0.1853  0.0233
    1W        W44692  13.097  10.933   9.428  0.4277  0.2279 -0.0247
    1W        W44693   3.610  29.017   1.316 -0.1415  0.0673 -0.0485
    1W        W44694   0.692  22.190   9.252  0.1401  0.0427 -0.0799
    1W        W44695  19.571  11.919   1.307 -0.3212 -0.0774  0.0328
    1W        W44696  27.047  14.061   1.800  0.1780 -0.1337  0.0593
    1W        W44697   1.970   6.361   0.704  0.1377 -0.1374  0.1361
    1W        W44698  21.701  26.759   7.570  0.1358 -0.1556  0.4387
    1W        W44699  18.290   8.950   9.532 -0.2693  0.0419  0.2360
    1W        W44700  26.519  10.284   7.231  0.2898 -0.0470 -0.1768
    1W        W44701  14.330  20.016   1.412  0.2177  0.2885 -0.2185
    1W        W44702   1.274  14.789   8.163  0.3286  0.1995  0.0126
    1W        W44703  27.889  16.472   0.866  0.1207 -0.1251  0.0875
    1W        W44704  17.236  19.903   8.976  0.4666  0.0919  0.0753
    1W        W44705   2.902  16.891   2.397  0.2717 -0.3479  0.3147
    1W        W44706  26.581   1.427   7.330  0.2510  0.0996  0.0267
    1W        W44707   0.032  11.262   8.526  0.2678 -0.0832 -0.2513
    1W        W44708  15.587  16.981   1.441  0.1415  0.2272  0.1097
    1W        W44709  15.654  19.468   9.089 -0.2136 -0.1498 -0.1880
    1W        W44710  27.687  10.195   6.873  0.0580  0.0433 -0.1420
    1W        W44711  28.621  14.645   2.398 -0.0836  0.0008  0.1177
    1W        W44712  26.988  20.368   1.214  0.0233  0.0863 -0.1042
    1W        W44713   9.290  19.962   9.505 -0.0182 -0.0362 -0.1232
    1W        W44714  19.819  21.183   0.003  0.0351  0.1175 -0.0877
    1W        W44715   8.750  24.897   2.730  0.2203  0.0457  0.0626
    1W        W44716   3.549   0.784   7.176  0.0699 -0.1179 -0.2001
    1W        W44717   2.850  23.272   8.145  0.0834  0.2490 -0.3791
    1W        W44718  18.270  23.225   0.894 -0.4524 -0.0455  0.2687
    1W        W44719   0.818  21.968   7.850 -0.1080  0.2947 -0.0558
    1W        W44720   5.195  27.655   1.377 -0.0475  0.1813  0.1881
    1W        W44721  16.159   7.465   0.864  0.0097 -0.0439 -0.0025
    1W        W44722  16.177   5.118   2.689  0.1760 -0.3623  0.0046
    1W        W44723  14.079   9.776   1.359  0.0066 -0.0630 -0.0394
    1W        W44724  26.948   8.127   7.287  0.0242 -0.2184 -0.0301
    1W        W44725  12.858   7.201   8.651 -0.1411 -0.2364  0.3433
    1W        W44726  18.473  26.671   0.815  0.2214 -0.1507 -0.1032
    1W        W44727  16.867  12.072   1.820  0.1480  0.2727  0.0535
    1W        W44728  18.361   2.865   2.598  0.2718 -0.1169 -0.2062
    1W        W44729   9.109  14.920   9.452  0.3722 -0.3919  0.3311
    1W        W44730  28.690  19.708   6.560 -0.0928  0.0431 -0.1763
    1W        W44731  12.264  14.808   0.564 -0.2129 -0.2863  0.0128
    1W        W44732   2.687  14.642   9.434  0.1411  0.2027 -0.0962
    1W        W44733  23.975  14.685   5.718  0.0618 -0.0959  0.1983
    1W        W44734   0.079  24.513   7.074  0.2905 -0.0891  0.1730
    1W        W44735   0.174   2.735   9.249  0.2738  0.4121  0.1386
    1W        W44736   3.536  21.457   1.544  0.1970 -0.1109  0.2200
    1W        W44737  23.476  13.068   6.354  0.0329 -0.1643  0.1637
    1W        W44738  18.779  27.461   1.540 -0.1531 -0.0371  0.0397
    1W        W44739  18.266  19.923   9.586 -0.0890 -0.0527 -0.2552
    1W        W44740   7.360  13.356   7.078 -0.2492 -0.3015 -0.0936
    1W        W44741   1.419  15.427   1.364 -0.3588  0.0280  0.1313
    1W        W44742   8.619  15.882   0.002 -0.0013  0.0232  0.0390
    1W        W44743   8.423  19.745   9.377 -0.1718  0.2530 -0.1633
    1W        W44744  13.396  12.735   8.680  0.0088  0.0408  0.2243
    1W        W44745  11.878   4.466   7.709  0.1291 -0.2392  0.2191
    1W        W44746  14.145  14.553   0.870  0.3816  0.1353 -0.0099
    1W        W44747  13.399   0.702   2.682  0.1015  0.2948 -0.0665
    1W        W44748  12.910  11.624   0.757 -0.0426 -0.1224 -0.0852
    1W        W44749  23.061  12.159   0.547  0.0500  0.0299 -0.0424
    1W        W44750  14.188  27.488   8.845  0.2138 -0.0177  0.2386
    1W        W44751  14.667  26.902   1.079 -0.1686 -0.0163  0.2730
    1W        W44752  27.272  28.326   2.800  0.0587 -0.0688  0.2668
    1W        W44753   2.955   2.235   1.037  0.0168  0.1554  0.1279
    1W        W44754  17.928  21.675   8.038  0.1121  0.1020  0.3668
    1W        W44755   6.128  15.403   8.929  0.1993 -0.0986  0.0119
    1W        W44756   4.037   2.456   3.415 -0.0752  0.1671  0.0189
    1W        W44757  20.043   8.573   8.024  0.0916 -0.1640 -0.0078
    1W        W44758  11.413  22.443   6.897  0.1365  0.0356  0.0251
    1W        W44759   1.805  15.593   0.445 -0.2114 -0.2892  0.1264
    1W        W44760  17.808  16.719   2.062  0.0469 -0.1154  0.0321
    1W        W44761   1.272  22.737   7.591  0.0685  0.0865  0.3219
    1W        W44762  15.346   1.021   9.120  0.1494  0.1274  0.3202
    1W        W44763   6.623  20.825   7.136  0.1942  0.1337 -0.2817
    1W        W44764   1.560   8.069   1.673 -0.0652 -0.0826 -0.1786
    1W        W44765  15.936  15.769   7.989  0.1111  0.1038 -0.0253
    1W        W44766  12.976  16.686   7.946 -0.0088  0.4502  0.1775
    1W        W44767  23.385  15.267   6.097  0.1375  0.0838  0.1294
    1W        W44768  20.196  21.940   8.112  0.1327 -0.0741  0.0774
    1W        W44769  25.157  23.599   2.350 -0.1424 -0.1988  0.2236
    1W        W44770   4.815  24.135   7.262 -0.1597 -0.2954  0.0206
    1W        W44771   5.838  19.722   6.841 -0.0970 -0.1106  0.0636
    1W        W44772  11.786   8.021   0.968 -0.1791 -0.2526  0.1879
    1W        W44773  16.393   5.196   0.473  0.2237  0.1304 -0.0071
    1W        W44774   6.352  15.505   8.274  0.1317 -0.0093  0.1706
    1W        W44775  25.338  16.369   6.307  0.1272  0.0158 -0.0538
    1W        W44776   9.747   7.445   7.993  0.0344 -0.0221  0.0037
    1W        W44777  12.364   8.558   1.400  0.1298  0.0160  0.0125
    1W        W44778  10.766  27.353   3.213  0.1872 -0.1113  0.1244
    1W        W44779   9.158   4.791   3.797 -0.1246 -0.2153  0.0207
    1W        W44780   6.514  24.630   9.513  0.3637 -0.1416 -0.0347
    1W        W44781  26.562  27.039   6.173 -0.0840  0.0505 -0.1993
    1W        W44782   5.217   1.554   9.487  0.0058  0.0246 -0.2265
    1W        W44783  16.089   0.503   7.565 -0.0906  0.1658 -0.0928
    1W        W44784   1.612  16.844   6.409  0.2636 -0.1021  0.1204
    1W        W44785   6.548  18.424   1.687  0.4343  0.2409  0.1457
    1W        W44786  11.789  24.049   9.233  0.0684  0.1640 -0.1498
    1W        W44787   8.582  28.677   7.885  0.0007 -0.0300 -0.0152
    1W        W44788  13.437   2.276   8.193 -0.0213 -0.1691  0.1244
    1W        W44789  22.527   8.715   2.900 -0.1819  0.5166  0.0316
    1W        W44790  12.023   7.063   2.557 -0.0575  0.1868 -0.2313
    1W        W44791  12.729   2.898   0.660 -0.2263  0.1250  0.0968
    1W        W44792  24.058  18.677   6.331  0.0876  0.1981  0.0422
    1W        W44793  28.134   9.589   2.183  0.1300 -0.4301  0.2394
    1W        W44794   2.752  12.214   7.804  0.0258  0.3978  0.0687
    1W        W44795  21.814  17.169   7.757  0.0391  0.1755 -0.1115
    1W        W44796   0.237   2.911   6.917  0.0716  0.2656  0.2437
    1W        W44797  20.119  11.576   9.064 -0.2735  0.0100 -0.4455
    1W        W44798   0.951  15.213   6.473 -0.0201 -0.2482  0.2573
    1W        W44799  21.824  17.521   7.266  0.1255  0.1964  0.5688
    1W        W44800  23.353  19.530   2.654  0.0476 -0.4631 -0.1094
    1W        W44801  25.239   8.541   8.384  0.2206 -0.0491  0.0978
    1W        W44802   4.110  29.279   1.093  0.4849 -0.1101 -0.2116
    1W        W44803  17.839   8.407   0.978 -0.0978 -0.2083  0.0522
    1W        W44804  13.900  12.007   8.626  0.2009 -0.2816 -0.0797
    1W        W44805  27.775  29.028   3.247 -0.0868  0.0597  0.1780
    1W        W44806  26.743  26.589   9.465  0.0961 -0.1424 -0.1709
    1W        W44807   3.167   7.099   0.309 -0.2849 -0.1519  0.0833
    1W        W44808  16.282  22.867   0.497  0.3092 -0.0830  0.4502
    1W        W44809  19.732  20.475   2.350 -0.0402 -0.0840  0.1642
    1W        W44810   6.066   3.137   1.950  0.3112 -0.1350  0.0071
    1W        W44811   8.460  17.528   8.524  0.0079  0.0124  0.0480
    1W        W44812  15.969   1.514   2.709  0.2302  0.1086  0.1074
    1W        W44813  22.097  11.353   7.059  0.2059 -0.0479 -0.3249
    1W        W44814   4.318  28.736   8.861  0.3418  0.3124  0.1140
    1W        W44815  24.116  27.376   2.255  0.1549  0.0029 -0.0878
    1W        W44816   5.627  21.650   7.843  0.2124 -0.0436 -0.1421
    1W        W44817  23.519  13.309   0.875  0.1649 -0.0025  0.1234
    1W        W44818  11.939  15.154   1.034 -0.2552 -0.0854 -0.0046
    1W        W44819  25.997  25.067   1.271 -0.1413  0.2356  0.0612
    1W        W44820  21.152   6.286   2.687 -0.2733 -0.1639 -0.1562
    1W        W44821   6.475   2.357   6.996 -0.1505  0.0616 -0.0950
    1W        W44822  27.351  20.613   8.589 -0.3364  0.0550 -0.0682
    1W        W44823  28.263  17.857   9.057 -0.0126  0.2582  0.0782
    1W        W44824  20.537   0.228   0.430  0.1517 -0.0927  0.2349
    1W        W44825  10.552   0.115   0.783 -0.0683  0.0814  0.0064
    1W        W44826  22.483   0.643   1.741  0.1946  0.1799 -0.0981
    1W        W44827   3.528  17.934   6.635  0.2152  0.1781  0.0343
    1W        W44828  12.625  23.602   8.973 -0.1115 -0.0228 -0.1988
    1W        W44829  22.651  28.187   7.081 -0.4044 -0.0027  0.2547
    1W        W44830   9.380  23.025   0.350  0.0761  0.2123 -0.0646
    1W        W44831  18.603  27.100   1.119  0.0863  0.1605 -0.0955
    1W        W44832  11.650  21.555   2.545  0.2673 -0.0771 -0.2288
    1W        W44833   7.164  15.643   7.346 -0.0957 -0.1039 -0.0403
    1W        W44834  17.695  16.765   1.034  0.2163  0.0216 -0.1096
    1W        W44835  17.088   1.337   2.926  0.1441 -0.0039 -0.1579
    1W        W44836  16.064  27.521   8.919 -0.1420 -0.2180 -0.3488
    1W        W44837  21.226  11.551   8.826 -0.4398  0.1049 -0.1139
    1W        W44838   1.417  21.223   7.838 -0.1025 -0.1503 -0.1059
    1W        W44839   0.915   3.348   0.830 -0.2242  0.1403  0.0747
    1W        W44840  16.413  29.093   2.149  0.0837 -0.2142 -0.1618
    1W        W44841  16.940  13.627   2.151  0.2424 -0.1869 -0.0078
    1W        W44842  20.178   1.305   9.488  0.3615 -0.1435  0.0285
    1W        W44843   9.339  21.926   6.704  0.2928 -0.2157  0.2427
    1W        W44844  14.858  26.640   2.193  0.2139  0.1500 -0.4146
    1W        W44845  10.944  21.165   0.461  0.0900  0.1131  0.2783
    1W        W44846  17.627   2.244   1.403  0.2284 -0.2316 -0.3471
    1W        W44847  18.444   6.787   1.958 -0.1566 -0.0294  0.2898
    1W        W44848   1.350  15.684   6.589  0.0531  0.2964 -0.1246
    1W        W44849   2.269   8.210   8.155 -0.1952  0.0584  0.2148
    1W        W44850   7.947   0.318   7.958 -0.0025  0.2063 -0.1430
    1W        W44851  19.627  23.715   2.157 -0.2064 -0.2285  0.0904
    1W        W44852   6.850  11.050   2.069 -0.0630 -0.1809 -0.5109
    1W        W44853  24.762  24.630   8.464  0.1791  0.2572  0.2247
    1W        W44854  19.425   6.826   9.163 -0.0829  0.1624 -0.2973
    1W        W44855  11.836   2.984   8.463  0.1506 -0.3017 -0.1615
    1W        W44856  11.020  10.737   7.187  0.2476 -0.1733  0.1940
    1W        W44857   3.943  28.836   0.937  0.0427 -0.1350 -0.1982
    1W        W44858  11.339  27.385   7.759 -0.0527 -0.3910  0.0181
    1W        W44859  23.469  20.036   8.341 -0.0955  0.0651  0.1699
    1W        W44860   5.106  18.329   8.258 -0.0148 -0.1902 -0.1262
    1W        W44861   3.964  18.344   7.643  0.0623 -0.0105  0.0264
    1W        W44862  19.765  17.706   7.245  0.1182 -0.1763 -0.2298
    1W        W44863  26.597   8.178   1.306 -0.0817  0.0647 -0.0836
    1W        W44864  23.789  15.989   8.213  0.0737 -0.1470 -0.1276
    1W        W44865   9.238  14.771   8.394 -0.1686 -0.1074 -0.2391
    1W        W44866  21.477   8.823   1.910  0.0768 -0.0605  0.1369
    1W        W44867   0.411  17.937   2.019  0.1252 -0.1199 -0.0496
    1W        W44868   6.535   7.833   2.287 -0.1072  0.0886 -0.0351
    1W        W44869  21.863  10.944   1.148  0.1605 -0.1317 -0.1302
    1W        W44870  13.477   1.639   0.681  0.0608  0.0879  0.0533
    1W        W44871  26.614  20.489   1.541  0.2863  0.1842  0.0977
    1W        W44872  11.294   5.095   1.630  0.0961  0.1501  0.2562
    1W        W44873  12.794  29.219   9.581 -0.2145 -0.1128 -0.1352
    1W        W44874  13.365  14.348   7.794  0.1646  0.0078  0.1852
    1W        W44875   2.216  11.364   1.598  0.0082 -0.0165 -0.3561
    1W        W44876  29.017   0.288   2.458 -0.1492 -0.1771  0.0797
    1W        W44877   6.804  24.180   8.056 -0.0690  0.0253  0.3963
    1W        W44878   2.263   0.698   7.335  0.0562 -0.1781  0.2944
    1W        W44879   5.156   4.136   8.504  0.1815 -0.2296 -0.3365
    1W        W44880  26.603   0.322   9.546  0.0085 -0.1172  0.0823
    1W        W44881  27.015  27.033   2.558  0.1198  0.0624  0.3693
    1W        W44882   8.553   1.153   0.065  0.0393  0.0583 -0.0729
    1W        W44883  22.056  21.507   1.474 -0.2188 -0.0834 -0.3056
    1W        W44884  13.427  17.581   9.370  0.1034  0.0592  0.0773
    1W        W44885  10.150  21.772   7.213 -0.0778  0.3259  0.0073
    1W        W44886  23.395  19.131   1.030  0.2207 -0.2296  0.1842
    1W        W44887  20.920  18.644   7.375 -0.1017  0.0241  0.0871
    1W        W44888  14.976   4.691   9.092 -0.3287 -0.1713 -0.1660
    1W        W44889  21.104  19.481   7.969  0.0004  0.0141 -0.1280
    1W        W44890  19.132  21.325   0.533 -0.1614  0.1113  0.2351
    1W        W44891   9.412   7.128   0.446 -0.0606 -0.1176 -0.0918
    1W        W44892  21.311  11.673   7.157 -0.1103 -0.0720 -0.2485
    1W        W44893  21.477  21.451   3.143 -0.2045  0.0150  0.1795
    1W        W44894  21.397  27.382   1.404  0.2128 -0.2378 -0.0526
    1W        W44895   4.414  11.677   9.532  0.2595  0.2847  0.1589
    1W        W44896   3.894   0.003   9.401 -0.3738  0.0805  0.2544
    1W        W44897  21.313  13.386   7.581  0.0178 -0.0550  0.1009
    1W        W44898  26.819  27.784   9.396  0.1425  0.1003  0.2912
    1W        W44899   5.385   4.952   7.477  0.0487  0.1672  0.0538
    1W        W44900  17.621  17.747   8.147  0.0106 -0.2642  0.1020
    1W        W44901  21.997  10.441   7.333  0.0368 -0.0441 -0.1853
    1W        W44902   3.629  24.823   8.338 -0.1640 -0.1742  0.0149
    1W        W44903  12.064  15.282   1.614  0.0964  0.3456 -0.0251
    1W        W44904  16.795  22.612   3.004 -0.0035 -0.1063  0.1124
    1W        W44905  17.861  11.282   8.763 -0.1228 -0.0757  0.3256
    1W        W44906   8.001   8.621   6.623 -0.0831  0.2762 -0.0858
    1W        W44907   4.663  12.702   7.262  0.2240  0.7149 -0.0255
    1W        W44908  14.204   7.967   0.793 -0.1590  0.2764  0.0509
    1W        W44909   9.779  23.542   1.044 -0.1210 -0.1305  0.1642
    1W        W44910  11.377  20.767   7.447  0.1139  0.3720  0.0861
    1W        W44911  21.261  12.163   1.518  0.1622  0.1103 -0.2110
    1W        W44912  14.479   0.943   3.726  0.1630  0.1750  0.0291
    1W        W44913   7.331  16.673   1.811  0.1184  0.0292 -0.0576
    1W        W44914  28.207   8.200   9.037 -0.0843  0.0748  0.3273
    1W        W44915  14.802  29.069   1.897  0.2471  0.2404  0.1950
    1W        W44916   8.936   1.680   8.347 -0.0383 -0.0744  0.1351
    1W        W44917   3.063  18.754   0.372  0.1762  0.4037 -0.3034
    1W        W44918   0.633  24.654   9.094 -0.1006 -0.1066 -0.1084
    1W        W44919   5.929   8.183   9.160 -0.0944 -0.1661  0.0643
    1W        W44920  11.080  12.106   1.231 -0.1322 -0.1160 -0.1288
    1W        W44921  10.664   4.193   9.075 -0.1758 -0.2399 -0.0224
    1W        W44922   3.453  13.413   7.137  0.1781  0.1677 -0.2216
    1W        W44923  21.103   1.206   2.269  0.0185 -0.2781  0.0764
    1W        W44924   1.452  25.721   2.415 -0.1232 -0.0593 -0.1529
    1W        W44925  29.341  15.741   7.002 -0.0116 -0.0204  0.1555
    1W        W44926  12.169   2.302   0.176 -0.0930  0.1355  0.0371
    1W        W44927   0.848  25.499   7.702  0.1278 -0.0176  0.4802
    1W        W44928   1.387  16.648   1.746 -0.0033  0.0364 -0.0195
    1W        W44929  22.162  29.031   0.064  0.1843  0.1598  0.1424
    1W        W44930  23.445  24.910   9.359  0.1328  0.0669 -0.0045
    1W        W44931  13.612  16.915   0.576 -0.0789  0.3306  0.1203
    1W        W44932   1.948  17.115   6.988  0.1064 -0.0507  0.2948
    1W        W44933  17.902  11.806   8.880  0.0202  0.2750 -0.1115
    1W        W44934   2.028  10.833   9.486 -0.2905  0.2341 -0.3452
    1W        W44935  12.188  23.016   2.305  0.1565  0.5409  0.2962
    1W        W44936   4.781  26.935   9.306  0.3160 -0.0105  0.0426
    1W        W44937   9.841  19.221   7.682 -0.0202 -0.1292  0.3555
    1W        W44938   7.836  16.965   8.712  0.2058  0.1960 -0.4159
    1W        W44939  20.481  21.409   1.266 -0.0378  0.0004 -0.3317
    1W        W44940  18.858   2.944   9.322 -0.3449 -0.2043 -0.1133
    1W        W44941   6.900   4.844   0.992 -0.0262  0.1066  0.1353
    1W        W44942   2.038   2.097   9.557 -0.1359  0.0227 -0.2008
    1W        W44943  11.935  28.668   0.494  0.0699 -0.1857 -0.2634
    1W        W44944   0.704  24.270   1.237 -0.4084  0.1690  0.0443
    1W        W44945   1.596  12.446   2.784  0.0121 -0.0786  0.2106
    1W        W44946  24.005  20.033   0.156  0.1644 -0.0207 -0.0334
    1W        W44947  10.489  27.945   8.713 -0.2637 -0.1179 -0.0068
    1W        W44948  16.579  27.082   8.604  0.0431  0.0253 -0.2024
    1W        W44949  29.108  29.022   9.102  0.1382  0.1738 -0.0306
    1W        W44950  10.682  18.907   0.680  0.0839 -0.0189 -0.2489
    1W        W44951   9.359  16.462   1.474 -0.0671  0.2844 -0.0670
    1W        W44952  15.010   5.437   3.532 -0.0385  0.0586  0.0599
    1W        W44953  28.170   5.464   9.419 -0.1027  0.3399  0.0947
    1W        W44954  25.929  17.420   7.382 -0.3241 -0.0522 -0.0288
    1W        W44955  26.568   9.365   8.165 -0.0888  0.1780  0.0651
    1W        W44956   2.241  12.915   1.883  0.1627 -0.0391 -0.0597
    1W        W44957   5.280  17.079   0.988 -0.1352  0.0960 -0.0165
    1W        W44958  14.690   3.874   8.832 -0.1915 -0.1566 -0.1890
    1W        W44959  20.278  26.116   6.943 -0.0665 -0.1128 -0.2447
    1W        W44960  20.581  17.807   2.086  0.0744 -0.1664 -0.1869
    1W        W44961  14.597  11.265   0.399 -0.1836 -0.3815 -0.2064
    1W        W44962  25.443  28.400   2.033 -0.0496  0.2802  0.0948
    1W        W44963  26.547   0.625   8.802 -0.2607  0.0781 -0.0637
    1W        W44964   7.797   7.705   9.070 -0.2658  0.0004 -0.2448
    1W        W44965   8.598  28.160   1.362 -0.1783  0.1739 -0.0416
    1W        W44966  28.410  19.386   6.252  0.1678 -0.3892 -0.0780
    1W        W44967  27.335   1.526   6.841  0.0397 -0.1712  0.1225
    1W        W44968  21.740   3.813   9.300  0.0941  0.2647  0.3114
    1W        W44969  18.722   7.829   8.181  0.0763  0.0699  0.3461
    1W        W44970  13.726  15.043   7.692 -0.3157 -0.0502  0.2019
    1W        W44971  27.944  26.202   9.001 -0.1568  0.1176 -0.1221
    1W        W44972   7.727  17.644   7.169 -0.1597 -0.0825 -0.0420
    1W        W44973  18.692  15.929   1.811  0.0630 -0.1515  0.2036
    1W        W44974  19.623  28.075   2.751 -0.0256 -0.0873  0.2090
    1W        W44975   3.966  27.905   1.163  0.0106 -0.0062  0.0295
    1W        W44976  16.308  27.148   9.138  0.0076  0.0141  0.0269
    1W        W44977  24.414   6.012   9.313 -0.2208 -0.4967  0.0498
    1W        W44978   2.974   0.227   9.235 -0.1375 -0.1546 -0.2286
    1W        W44979  26.862  19.808   0.946  0.1078  0.0436  0.0821
    1W        W44980   8.374  16.681   6.360 -0.3870 -0.0450 -0.3385
    1W        W44981  18.245  17.624   1.669 -0.0938 -0.0130 -0.2237
    1W        W44982  20.022  22.104   6.235  0.0099  0.2227 -0.1137
    1W        W44983  13.112  23.477   8.677  0.1905  0.0059 -0.2177
    1W        W44984  16.337  21.099   8.380  0.3532  0.1933  0.0904
    1W        W44985  15.842  13.517   7.451  0.1004 -0.3566 -0.2405
    1W        W44986  28.006   4.107   8.445  0.0689  0.0993 -0.0250
    1W        W44987  15.945  20.143   0.678 -0.4042 -0.1796  0.0756
    1W        W44988   4.257  22.182   9.535  0.0604 -0.0999 -0.3855
    1W        W44989  12.959  29.125   8.205 -0.1585  0.1038 -0.0890
    1W        W44990  24.213  11.681   6.883 -0.0214 -0.2873 -0.0823
    1W        W44991   0.396   9.830   6.693 -0.0280 -0.0725  0.0805
    1W        W44992   8.619  16.522   7.293 -0.1012 -0.0737  0.0002
    1W        W44993   3.313   9.559   8.828  0.2117  0.3433 -0.1734
    1W        W44994  12.913  26.258   3.064 -0.2421 -0.0414 -0.1498
    1W        W44995  13.724  20.994   0.500 -0.0504 -0.1058  0.0260
    1W        W44996  18.553   4.509   3.364 -0.1660  0.5148  0.0271
    1W        W44997  12.136  14.581   1.489 -0.0772  0.0271 -0.1427
    1W        W44998  11.778   9.265   8.465 -0.1049  0.1754  0.1243
    1W        W44999  15.033  28.704   7.938  0.0039 -0.1992 -0.0641
    1W        W45000  26.777  16.013   0.992  0.4878  0.0963 -0.1899
    1W        W45001  29.197  18.574   2.213 -0.2040  0.1709 -0.1397
    1W        W45002  13.975   8.470   3.004  0.0692  0.0332 -0.1905
    1W        W45003  14.507  21.960   1.976  0.0599  0.4886  0.0592
    1W        W45004  15.786  24.191   0.519 -0.3579  0.1545  0.2286
    1W        W45005   5.465  18.777   1.784  0.0955  0.2959  0.1612
    1W        W45006  10.600   6.468   6.797  0.1010  0.1527 -0.0818
    1W        W45007   9.053  16.851   7.064  0.0673 -0.3502  0.1114
    1W        W45008   6.583   3.393   9.597  0.1360 -0.1881 -0.2632
    1W        W45009  26.725   6.962   0.563  0.0901  0.3779 -0.1088
    1W        W45010   8.438  12.119   0.345  0.0841  0.2935 -0.1524
    1W        W45011   4.057  22.034   9.083  0.1661 -0.0803  0.1118
    1W        W45012  25.994  25.786   2.852  0.0201 -0.1888  0.0836
    1W        W45013  26.129  11.564   6.107  0.1806 -0.1412  0.2161
    1W        W45014   5.971   1.167   2.584  0.1420  0.1053  0.0007
    1W        W45015  19.930  23.661   8.387  0.0317 -0.2156  0.1090
    1W        W45016   5.747  11.220   7.140  0.0910 -0.1456  0.0037
    1W        W45017  25.963   4.091   8.776  0.0196 -0.0525 -0.3021
    1W        W45018  19.485   2.554   7.357 -0.0681  0.2813 -0.1855
    1W        W45019  19.772  12.288   1.006 -0.0352  0.1389 -0.1686
    1W        W45020  27.119   2.962   0.734 -0.3440 -0.0028 -0.0377
    1W        W45021   6.663   3.164   1.087  0.0172 -0.0568  0.1331
    1W        W45022  17.200  22.111   2.574  0.1068 -0.0461  0.2202
    1W        W45023   5.862   0.170   7.594 -0.0288  0.3200  0.0175
    1W        W45024   1.980  19.479   2.473  0.0890  0.1036  0.1858
    1W        W45025  16.104  13.082   0.501 -0.0500 -0.2989 -0.4582
    1W        W45026  26.009  28.793   1.565 -0.4904 -0.1467  0.0726
    1W        W45027  14.320  18.776   1.145  0.0371  0.0516  0.3876
    1W        W45028  22.693  15.472   6.765 -0.2395 -0.1619 -0.1483
    1W        W45029  18.532  20.295   7.819  0.1201  0.2179 -0.1099
    1W        W45030  28.241  22.608   6.423  0.2651 -0.1310  0.1405
    1W        W45031  17.477  18.892   0.814  0.0795  0.0175  0.1162
    1W        W45032   5.225  17.880   8.536 -0.0144 -0.4258 -0.0288
    1W        W45033   9.064  16.545   7.463 -0.0227  0.4110  0.1197
    1W        W45034  16.380  24.532   0.562 -0.1490  0.4133  0.0520
    1W        W45035   1.660   2.307   1.786 -0.0078 -0.0673  0.3570
    1W        W45036  29.297   4.200   6.376  0.0245 -0.0303  0.0603
    1W        W45037  15.053  14.948   1.757 -0.1389 -0.1123  0.2905
    1W        W45038  25.406   3.224   6.416 -0.4783 -0.0158  0.2028
    1W        W45039  26.385   2.877   2.845 -0.1247 -0.1624  0.1470
    1W        W45040  25.884  14.341   7.583  0.1851 -0.0220  0.1854
    1W        W45041  10.868   5.311   9.001 -0.1736 -0.2549  0.2999
    1W        W45042  23.972  15.140   1.060  0.0450 -0.2666  0.1037
    1W        W45043  28.032  14.608   0.032 -0.3452 -0.2598  0.1794
    1W        W45044   3.145  11.889   0.420 -0.1246 -0.1544  0.1459
    1W        W45045  24.333  22.261   2.574  0.1599  0.0216  0.3457
    1W        W45046   7.424  22.161   0.363  0.2436 -0.0670  0.0359
    1W        W45047  16.520   0.219   3.152  0.2815 -0.2817 -0.1320
    1W        W45048   2.515   0.294   3.134  0.1248  0.2986 -0.1435
    1W        W45049   5.213   2.246   8.340  0.1818  0.0423  0.1567
    1W        W45050  20.334   8.758   7.515 -0.0994 -0.3559 -0.1721
    1W        W45051  26.880  10.382   6.184  0.0942  0.3333 -0.2389
    1W        W45052  17.725  26.376   9.309 -0.0565 -0.0070 -0.0000
    1W        W45053  14.476   9.636   7.956  0.0107 -0.0792 -0.0039
    1W        W45054  14.307  27.513   9.343 -0.1996 -0.0452 -0.4325
    1W        W45055  14.690   1.914   8.250  0.0189 -0.0058  0.0766
    1W        W45056  11.643  16.246   7.097  0.0740 -0.0344  0.1720
    1W        W45057  21.134   1.033   7.786 -0.2215 -0.0687  0.0660
    1W        W45058   6.411  23.920   1.161  0.0782 -0.1564  0.1328
    1W        W45059   4.145  18.472   7.223 -0.1053  0.2482  0.1818
    1W        W45060  26.842  18.804   8.921 -0.0660  0.3784 -0.0418
    1W        W45061  19.281  23.191   9.597 -0.1716  0.2452 -0.1455
    1W        W45062   8.643  26.149   2.720 -0.0159 -0.2464  0.2632
    1W        W45063   4.359  15.504   0.547  0.0549  0.2682 -0.0669
    1W        W45064  16.413   3.911   1.792 -0.0761 -0.2075  0.2349
    1W        W45065  19.526   6.821   1.210  0.2304  0.0145 -0.0861
    1W        W45066   6.714   9.195   3.219 -0.0823  0.1237  0.0025
    1W        W45067   5.278  17.217   1.471  0.1243  0.2412 -0.0314
    1W        W45068  20.803   1.512   1.929  0.0548 -0.0531 -0.3256
    1W        W45069   2.495  19.706   5.542  0.2105 -0.3511 -0.0986
    1W        W45070   8.088   5.554   7.052  0.0741 -0.0489  0.2674
    1W        W45071   7.947  28.687   9.365 -0.0018  0.1368 -0.0591
    1W        W45072   2.056   1.847   1.305  0.1213 -0.1434  0.2324
    1W        W45073  10.734  16.550   2.816  0.0133 -0.2101  0.4781
    1W        W45074  16.183  14.761   9.175 -0.0243  0.0346 -0.3089
    1W        W45075  12.648   9.875   9.079 -0.0729 -0.1147  0.2337
    1W        W45076  22.770  28.768   1.280 -0.0257 -0.0265 -0.1416
    1W        W45077  27.845  27.568   0.596 -0.3112 -0.0899 -0.0454
    1W        W45078   7.561  19.840   7.873 -0.0214  0.2038  0.0374
    1W        W45079  24.561   4.231   1.783  0.1462  0.2211 -0.2159
    1W        W45080   8.243   3.962   0.978  0.1699 -0.0657  0.1877
    1W        W45081  12.648  28.140   1.083 -0.1797 -0.0126  0.2308
    1W        W45082   4.434  15.947   0.253  0.1482 -0.0080 -0.3019
    1W        W45083  25.198   3.071   9.275  0.2227  0.0346 -0.0074
    1W        W45084  26.202  24.803   1.635 -0.1646  0.0930 -0.3854
    1W        W45085   7.999   6.561   8.953 -0.1623  0.1248  0.2327
    1W        W45086   2.667  28.806   0.043  0.0535 -0.1093  0.2731
    1W        W45087   7.910   1.801   8.057 -0.0309  0.0237 -0.1049
    1W        W45088   6.496  29.350   0.201  0.2254 -0.2463 -0.1260
    1W        W45089   5.318   8.725   1.334  0.0734 -0.0032  0.0485
    1W        W45090   2.335  16.351   0.125 -0.0659  0.2269 -0.0250
    1W        W45091  23.484   3.934   0.534  0.1404 -0.1473  0.0129
    1W        W45092  24.766  10.683   7.529  0.1245 -0.2490 -0.4267
    1W        W45093  11.565   5.728   0.990  0.1274  0.0270 -0.1572
    1W        W45094   7.270  10.976   9.098  0.1001 -0.3393 -0.0398
    1W        W45095   3.550  24.345   8.155  0.0263 -0.4660  0.0796
    1W        W45096  25.183  19.249   2.420 -0.0129 -0.1180 -0.1204
    1W        W45097   4.285   0.335   1.937 -0.1732 -0.1198 -0.2865
    1W        W45098   8.784  13.930   1.395  0.1313  0.1256  0.0578
    1W        W45099  23.497   6.971   2.036 -0.1541  0.0351  0.1001
    1W        W45100  11.774  22.340   0.126  0.1830  0.0593 -0.1309
    1W        W45101  22.498  22.208   7.387  0.1891 -0.0036 -0.4332
    1W        W45102  11.636  27.492   8.992  0.1432  0.1387 -0.3526
    1W        W45103  14.978  19.850   0.296 -0.1403 -0.2199 -0.5910
    1W        W45104  12.712  21.605   7.454  0.0547 -0.0615 -0.3145
    1W        W45105  12.472  13.758   7.761 -0.0694 -0.0545 -0.2546
    1W        W45106   3.154  13.746   1.474 -0.0912 -0.1034 -0.0981
    1W        W45107  14.300   3.840   1.784 -0.0899  0.1672  0.3483
    1W        W45108  20.327  19.575   2.749 -0.0041 -0.0600  0.0638
    1W        W45109   3.176   3.882   8.738 -0.2981 -0.1010 -0.1641
    1W        W45110   1.004  15.538   7.384 -0.0526 -0.0411  0.0756
    1W        W45111  28.208   5.432   5.986 -0.1893 -0.1682  0.1738
    1W        W45112  19.933  26.985   3.295 -0.0900  0.1481  0.2405
    1W        W45113  16.911   5.729   9.299 -0.2384  0.2278  0.0278
    1W        W45114   1.597  22.208   5.701  0.1771 -0.3418 -0.1829
    1W        W45115  19.678  28.675   7.340  0.1723  0.1999  0.1224
    1W        W45116   3.511  10.297   9.164  0.4507  0.1568  0.0538
    1W        W45117  20.895  19.890   8.130 -0.2789  0.3072 -0.2197
    1W        W45118  17.731  21.432   2.258  0.1484 -0.1017  0.2545
    1W        W45119  16.781  20.338   1.940 -0.1815 -0.2910 -0.1734
    1W        W45120  17.749  13.381   1.066 -0.1268 -0.1292 -0.2072
    1W        W45121  19.235  16.722   2.716  0.3198 -0.1305  0.4578
    1W        W45122  25.429  17.710   7.631  0.3231  0.2653  0.0374
    1W        W45123  24.418  28.650   2.869 -0.0288  0.0436  0.1609
    1W        W45124  11.288   6.839   8.693  0.1176  0.0727 -0.2326
    1W        W45125  12.522  24.949   0.144  0.0801 -0.1071 -0.2388
    1W        W45126  17.256   2.938   1.132  0.3480  0.1590  0.3667
    1W        W45127  22.705   2.619   2.701 -0.1018  0.1458  0.1956
    1W        W45128   3.113   7.014   1.396  0.1301 -0.1360 -0.2063
    1W        W45129   9.728   4.509   2.401 -0.1540  0.1147  0.2059
    1W        W45130  23.855  25.114   0.820 -0.2053  0.1305  0.2498
    1W        W45131  12.234  16.068   0.709  0.0127  0.1446 -0.2068
    1W        W45132  23.551  15.128   8.021  0.0672 -0.1595 -0.1081
    1W        W45133  10.205   1.115   0.724  0.3468 -0.2084  0.0702
    1W        W45134  25.061   1.237   1.991  0.0156  0.0865 -0.2659
    1W        W45135   2.124  14.136   8.702 -0.0017  0.3040  0.4355
    1W        W45136  20.315   4.595   8.466  0.0320 -0.0379 -0.0114
    1W        W45137  18.126   6.068   3.036 -0.3523 -0.1632  0.2012
    1W        W45138   2.331   6.414   6.309  0.1726 -0.2470 -0.1642
    1W        W45139  12.285  19.036   0.961  0.2256 -0.0350  0.0611
    1W        W45140  10.069  26.940   0.244  0.1968 -0.0489 -0.1331
    1W        W45141   0.283   5.308   9.131 -0.1069 -0.2824 -0.0560
    1W        W45142   4.708  27.882   6.867  0.1535  0.2621 -0.0583
    1W        W45143  23.351   8.651   9.676 -0.1810  0.2811 -0.3353
    1W        W45144  13.272  14.000   2.361 -0.0498  0.0390 -0.2456
    1W        W45145  22.084  17.530   2.685 -0.1195 -0.1820  0.2360
    1W        W45146  24.406  10.920   5.754  0.0430  0.0733  0.2090
    1W        W45147   6.227   1.656   1.215 -0.0938 -0.0332  0.1242
    1W        W45148  10.955  23.939   1.476 -0.0258 -0.0115 -0.0080
    1W        W45149  11.452  22.719   8.654 -0.0526  0.3025 -0.0689
    1W        W45150   8.203  17.088   8.372  0.0492 -0.2440 -0.2242
    1W        W45151  18.509  26.061   9.465  0.0702 -0.2269 -0.1168
    1W        W45152  22.271   6.834   9.182 -0.2287 -0.4944  0.0557
    1W        W45153  11.950   7.480   2.828  0.1157 -0.0262 -0.0089
    1W        W45154  19.969   7.673   1.260  0.0734  0.0653 -0.3036
    1W        W45155   0.333   4.613   9.640  0.1785  0.1776 -0.1064
    1W        W45156   2.857  14.563   6.236  0.0508  0.0959  0.0463
    1W        W45157   2.526  11.631   7.344  0.1100 -0.4329  0.0319
    1W        W45158  19.831  16.874   0.717 -0.0575 -0.3347  0.2374
    1W        W45159  26.070  16.914   0.649  0.0151 -0.0847 -0.2722
    1W        W45160  10.012  15.752   1.964  0.0680 -0.1618 -0.2008
    1W        W45161   5.899  13.402   1.675 -0.1052  0.1194 -0.2581
    1W        W45162  16.970  26.026   7.846  0.0071 -0.1852 -0.0421
    1W        W45163  28.504   8.486   7.104  0.3003  0.0319  0.1278
    1W        W45164  18.271   6.181   8.410 -0.0803  0.0143 -0.1146
    1W        W45165  14.466  11.008   8.221  0.2839  0.1168 -0.0229
    1W        W45166  15.888   0.364   1.423 -0.1616 -0.0378  0.1457
    1W        W45167  18.682   2.731   7.939  0.2815 -0.1100 -0.4087
    1W        W45168   1.574  19.677   2.214 -0.2804  0.1867 -0.2026
    1W        W45169   8.295   6.707   9.570  0.1058 -0.2171 -0.0724
    1W        W45170   0.616   8.661   8.989  0.0367 -0.0232 -0.0836
    1W        W45171  20.545   7.704   8.867 -0.1019 -0.1270 -0.0648
    1W        W45172  13.101   4.618   1.229 -0.3200  0.1361  0.1411
    1W        W45173  11.399   5.335   9.006  0.1627 -0.1977 -0.0824
    1W        W45174  11.923   9.396   0.122 -0.1061 -0.1183 -0.3049
    1W        W45175   7.882   5.732   1.818  0.1254 -0.1694  0.2878
    1W        W45176  12.372  14.136   8.845  0.2069 -0.0886  0.1919
    1W        W45177  11.149  28.111   2.002 -0.2158  0.1437  0.2632
    1W        W45178  12.381  21.945   7.215 -0.1055  0.2793  0.2925
    1W        W45179  23.093  13.381   6.948  0.1656  0.1451  0.1163
    1W        W45180  21.720  11.411   7.397 -0.1659  0.0159  0.0149
    1W        W45181  26.093  12.490   0.137  0.0277  0.0504 -0.1218
    1W        W45182   6.410  22.036   0.590 -0.1543 -0.1591 -0.3666
    1W        W45183  15.461   5.675   0.019 -0.0573 -0.2337  0.1065
    1W        W45184   9.488  22.364   1.615 -0.1411 -0.0475 -0.3378
    1W        W45185  16.960  24.246   0.917 -0.1166  0.3002 -0.0187
    1W        W45186  28.072  14.734   0.996 -0.0424  0.2375 -0.2669
    1W        W45187   8.673   8.533   8.995 -0.2726  0.0776  0.0672
    1W        W45188   0.764   2.705   2.651 -0.0556 -0.0884 -0.2364
    1W        W45189   6.542  10.846   8.028 -0.0620 -0.1207 -0.4142
    1W        W45190   6.161  11.023   7.307  0.1926  0.0393  0.3367
    1W        W45191  15.848   4.696   8.560 -0.0974  0.1075  0.0727
    1W        W45192  21.879  20.176   0.498 -0.0030 -0.0942 -0.2838
    1W        W45193  28.856   6.717   7.774  0.2567  0.0773  0.4363
    1W        W45194  28.653  13.497   9.532 -0.0214  0.1353 -0.2391
    1W        W45195  26.436  23.397   0.323  0.0960 -0.2887  0.1819
    1W        W45196  13.622   4.485   3.323  0.1462  0.0519 -0.1078
    1W        W45197  11.639  16.485   0.924 -0.1649  0.0780 -0.2541
    1W        W45198  21.370  25.828   0.835  0.0830 -0.0855 -0.0602
    1W        W45199   5.775  16.193   5.931 -0.1229  0.2166  0.3392
    1W        W45200  22.719   9.713   1.099 -0.4027 -0.1374  0.0108
    1W        W45201  17.223  16.719   0.708  0.3304 -0.1583 -0.1301
    1W        W45202  14.056   6.049   3.454  0.0404  0.2149  0.0679
    1W        W45203   2.097  16.768   6.590  0.0225  0.2605 -0.1013
    1W        W45204  14.156  11.921   0.850 -0.2242  0.2218 -0.0852
    1W        W45205  24.762  10.468   0.722 -0.1312  0.0578  0.4033
    1W        W45206  13.622  26.981   0.061  0.0916  0.1491  0.3279
    1W        W45207  18.883   3.423   1.546 -0.1443 -0.0546 -0.2923
    1W        W45208  29.275  13.942   6.540  0.0809  0.1245 -0.0944
    1W        W45209  14.476   9.778   9.675 -0.0681 -0.0540  0.2957
    1W        W45210  14.887   3.943   3.216  0.0070  0.1406 -0.1140
    1W        W45211   5.133  16.504   8.654  0.0272 -0.0264  0.2118
    1W        W45212  22.273   7.952   7.556  0.2722 -0.2290  0.0274
    1W        W45213  22.353   5.879   7.048  0.0775  0.1400 -0.3818
    1W        W45214  11.979   6.636   9.261 -0.1148 -0.3465 -0.1927
    1W        W45215   6.629  13.219   2.151 -0.1851  0.0865  0.0715
    1W        W45216  28.712   0.376   9.016  0.1947  0.0168  0.3690
    1W        W45217  20.696  27.904   1.717 -0.0508 -0.1083  0.0434
    1W        W45218  12.188  27.011   1.265 -0.1890  0.1918 -0.2601
    1W        W45219  15.058   5.174   3.950 -0.2763 -0.3059 -0.0150
    1W        W45220   1.471  10.650   7.070 -0.0503 -0.0525  0.0757
    1W        W45221   6.964   7.593   9.640  0.0361 -0.1228 -0.2186
    1W        W45222  17.243  18.446   0.649 -0.2055 -0.0072  0.0437
    1W        W45223  24.099   4.601   0.980  0.1365 -0.1167 -0.0777
    1W        W45224   5.174   2.387   3.212  0.0046 -0.0099  0.0500
    1W        W45225  16.317  27.306   1.315  0.2479  0.0060  0.2508
    1W        W45226   8.369  14.335   0.545  0.1312 -0.2354  0.0496
    1W        W45227  15.288  27.328   0.578  0.1502 -0.1002 -0.2584
    1W        W45228  27.913   3.387   8.994  0.0485 -0.0177 -0.3319
    1W        W45229   9.996  23.977   8.000 -0.1419  0.1685 -0.0427
    1W        W45230  26.782  24.443   7.427  0.1848 -0.0859  0.2794
    1W        W45231  27.026  28.482   9.076 -0.2422 -0.1608  0.5970
    1W        W45232  26.244   6.363   6.615 -0.0665  0.0471 -0.1069
    1W        W45233  12.779  24.070   8.749  0.1100 -0.1738 -0.1564
    1W        W45234   2.302  20.310   9.015 -0.0446 -0.1532 -0.0642
    1W        W45235  16.414  19.634   9.178 -0.1361  0.1861 -0.1893
    1W        W45236  24.700  22.164   8.315 -0.2971 -0.2276 -0.3744
    1W        W45237   0.731   9.202   1.323 -0.1456  0.2662  0.0772
    1W        W45238  17.743  10.162   7.479 -0.0455 -0.3544  0.1968
    1W        W45239  22.254  21.195   2.756  0.1092  0.2483  0.2261
    1W        W45240  19.453   9.411   9.414  0.1484  0.0118  0.1237
    1W        W45241   5.463   7.187   1.853  0.2724 -0.1859 -0.3782
    1W        W45242  14.029   3.048   3.384 -0.2558 -0.0045  0.3675
    1W        W45243  19.933  13.131   9.515 -0.4400 -0.1239 -0.1702
    1W        W45244  16.853  24.085   1.802  0.0900 -0.1420  0.0236
    1W        W45245  16.393   6.321   1.042 -0.0324 -0.2497 -0.1548
    1W        W45246  17.864  19.295   1.531  0.0070  0.0159  0.0734
    1W        W45247  17.187   2.304   2.192  0.0632 -0.2709  0.1825
    1W        W45248  10.004  19.988   0.715  0.1125 -0.2297 -0.0287
    1W        W45249  12.482  18.906   7.498 -0.1427  0.3925  0.0668
    1W        W45250  15.564  10.069   8.010  0.3615  0.1345  0.0613
    1W        W45251  28.658  10.651   9.648  0.1110  0.2669 -0.1150
    1W        W45252  21.409  18.255   8.202  0.0587 -0.1158  0.0107
    1W        W45253   9.349  28.260   0.498  0.0300 -0.1633  0.1925
    1W        W45254  12.319  17.122   8.687 -0.0626 -0.1505  0.1355
    1W        W45255   0.054   0.326   7.041  0.1350  0.1413 -0.0367
    1W        W45256   9.308   3.793   7.985  0.0184 -0.0412  0.1950
    1W        W45257  21.785   8.424   1.637  0.0567 -0.0194 -0.3990
    1W        W45258  11.803  17.369   2.365  0.1285  0.4430  0.1692
    1W        W45259   0.775  23.790   9.301  0.0414 -0.0765 -0.2638
    1W        W45260  14.625  28.427   8.212 -0.1242  0.2775 -0.0406
    1W        W45261  25.237   4.795   2.507 -0.1604 -0.0032 -0.1430
    1W        W45262  21.371   5.231   2.271 -0.2125  0.1957  0.3531
    1W        W45263  16.334   4.886   0.094  0.0002  0.0410 -0.0168
    1W        W45264  27.972  19.073   8.894  0.2045 -0.4954 -0.3052
    1W        W45265  28.407  24.814   7.033  0.2395  0.2557  0.1836
    1W        W45266  23.530   3.674   1.041  0.2831 -0.1692 -0.0628
    1W        W45267  27.303  17.284   0.470  0.1434  0.2171  0.0604
    1W        W45268  15.872  17.175   8.396 -0.0689 -0.2830  0.2699
    1W        W45269   4.408  23.925   6.472 -0.1857 -0.0035  0.0655
    1W        W45270  25.585  13.487   1.019 -0.0392  0.0997  0.4234
    1W        W45271  19.755   5.377   2.522  0.2924 -0.0149 -0.0838
    1W        W45272   5.186   5.751   1.726  0.1617  0.0811 -0.3535
    1W        W45273  26.268  22.215   8.630  0.0996  0.1987  0.1501
    1W        W45274  15.709  24.811   0.399 -0.2204  0.1764 -0.0462
    1W        W45275  11.916  24.788   2.343 -0.2900 -0.2988  0.0331
    1W        W45276  15.165  14.104   7.823  0.2151 -0.1013  0.2042
    1W        W45277  15.484   5.194   9.486  0.2489  0.0143 -0.1033
    1W        W45278  28.421  11.153   8.212  0.1857 -0.2432 -0.1171
    1W        W45279  22.004  17.658   6.779 -0.0298 -0.1627 -0.3358
    1W        W45280  11.509  19.953   0.876 -0.1046 -0.0762  0.1681
    1W        W45281  28.972   3.309   7.031  0.2708  0.2107 -0.3376
    1W        W45282   7.606   0.008   8.171  0.0004  0.0782  0.0880
    1W        W45283  27.017  17.688   6.523  0.0188 -0.0678  0.0278
    1W        W45284   8.322  10.476   1.377 -0.3300  0.0107 -0.1678
    1W        W45285  19.075  18.670   0.735 -0.1636 -0.2934 -0.2647
    1W        W45286  25.137   1.130   7.034 -0.0749 -0.2616 -0.1163
    1W        W45287  15.167   6.310   2.391  0.2061  0.0715  0.1996
    1W        W45288  27.432  23.599   8.773  0.2525 -0.0219 -0.1659
    1W        W45289  24.657  28.679   7.737 -0.2179 -0.1309  0.4111
    1W        W45290  13.706   0.523   7.460 -0.0669  0.0075  0.0303
    1W        W45291  21.544   6.495   8.099 -0.1719 -0.0289  0.1014
    1W        W45292   1.384   4.526   7.540  0.1952 -0.0005  0.2750
    1W        W45293  18.886  13.873   2.152  0.0777  0.1217  0.1562
    1W        W45294   4.084   4.915   0.555 -0.2695  0.0326  0.1288
    1W        W45295  13.981  25.685   3.681 -0.2044 -0.0536  0.0699
    1W        W45296  11.888  25.834   8.228  0.2823  0.1584 -0.1840
    1W        W45297  16.421  12.390   0.204 -0.1419 -0.1587 -0.1772
    1W        W45298   9.600   9.539   9.121 -0.0851  0.1579 -0.2481
    1W        W45299  25.187  13.797   0.784  0.0435  0.0442  0.3275
    1W        W45300   1.106  24.449   0.289 -0.1144 -0.1607  0.0834
    1W        W45301  18.073  18.233   1.545  0.1607 -0.2285 -0.1663
    1W        W45302  21.942  10.360   9.191  0.1638  0.3683 -0.1345
    1W        W45303  28.130  24.792   0.918 -0.0410  0.2874 -0.0712
    1W        W45304  24.979  26.865   0.369  0.0708 -0.1281 -0.2013
    1W        W45305  16.212   1.257   0.872 -0.3714  0.1455 -0.4202
    1W        W45306  12.094  26.063   7.833  0.2293  0.0165  0.0989
    1W        W45307  23.154  27.506   8.593 -0.0422  0.1364 -0.0504
    1W        W45308  29.308   8.387   9.390 -0.1727  0.1091  0.0165
    1W        W45309  20.227   0.394   1.236 -0.3186  0.1134  0.2790
    1W        W45310  28.281  10.709   0.615  0.3369 -0.1548  0.0707
    1W        W45311  11.109   8.956   7.967  0.3168  0.0531 -0.3304
    1W        W45312  21.744  15.090   9.336 -0.1610  0.2457  0.0153
    1W        W45313  23.123  14.869   8.155 -0.1965 -0.1260 -0.0741
    1W        W45314  10.530   5.559   1.730 -0.0385  0.0591  0.4838
    1W        W45315  24.414   8.356   8.763  0.0065  0.1213  0.0097
    1W        W45316   7.659  28.618   3.693 -0.0505 -0.1133  0.0048
    1W        W45317  29.332  23.244   1.975 -0.1603 -0.3381 -0.4703
    1W        W45318  12.776   1.255   7.106 -0.1368  0.1860  0.0472
    1W        W45319  27.356  23.051   8.318 -0.0922 -0.4079  0.1841
    1W        W45320   9.165  16.411   2.084  0.1937 -0.3228 -0.0503
    1W        W45321  25.455  18.783   8.358 -0.0266 -0.0552  0.1335
    1W        W45322  11.682   7.929   7.278  0.0488 -0.0223 -0.0971
    1W        W45323  19.514  23.976   0.085  0.3346  0.0732 -0.1540
    1W        W45324  11.480   4.177   9.552  0.0100 -0.1048 -0.1206
    1W        W45325   0.059  19.045   0.606  0.0861 -0.3478 -0.0745
    1W        W45326   6.130  17.008   1.877  0.0472 -0.0584  0.0703
    1W        W45327  10.459  23.685   2.390 -0.1090 -0.0622 -0.2431
    1W        W45328   0.530  28.162   9.638  0.3749  0.3950  0.1836
    1W        W45329  14.629  23.351   7.106  0.0142 -0.1805 -0.1478
    1W        W45330   5.265  22.627   7.415 -0.3063  0.0695 -0.3152
    1W        W45331   0.498  27.612   1.474 -0.0263  0.2865 -0.1344
    1W        W45332   9.371   3.220   0.338 -0.0094  0.3459  0.1296
    1W        W45333   2.648   8.443   9.674  0.3297 -0.2781 -0.0596
    1W        W45334   2.106   0.841   0.829 -0.2614  0.2704  0.0317
    1W        W45335  16.173  24.007   2.331 -0.0452 -0.3026  0.0636
    1W        W45336  21.411  24.979   8.387  0.3267  0.1089  0.0836
    1W        W45337   4.608  10.481   1.632 -0.0275  0.2117  0.0493
    1W        W45338  27.214  27.289   9.674 -0.0649  0.2043 -0.1401
    1W        W45339  14.673  27.128   8.153  0.2112  0.1148  0.1849
    1W        W45340  23.444   2.401   9.147  0.1870 -0.2927 -0.0087
    1W        W45341  27.622  21.389   8.794 -0.2448 -0.0774 -0.2085
    1W        W45342   5.639  20.400   8.158  0.1789  0.0640  0.4094
    1W        W45343  19.232  17.055   8.582  0.1374  0.1670  0.0398
    1W        W45344  25.357  11.309   1.219 -0.0945 -0.0660 -0.2479
    1W        W45345  14.574  13.021   2.183  0.3197 -0.0995 -0.1584
    1W        W45346  25.099   3.418   1.063  0.0979  0.1833  0.2077
    1W        W45347  23.683  25.333   7.979  0.1652  0.1161  0.0604
    1W        W45348  11.340  10.681   8.445  0.0295 -0.1394  0.0960
    1W        W45349  18.603  19.626   7.069 -0.2855 -0.0917  0.0670
    1W        W45350   4.252  13.873   8.981  0.0092  0.0678 -0.0546
    1W        W45351  27.675   4.040   1.911  0.2161  0.0848  0.0274
    1W        W45352  12.616  17.672   8.203 -0.2040  0.0145  0.1062
    1W        W45353  22.551  29.082   0.397  0.0684 -0.1477  0.1953
    1W        W45354   1.041  11.283   0.172  0.0836  0.2812 -0.1519
    1W        W45355   2.941   0.129   1.677 -0.0468 -0.0737 -0.0090
    1W        W45356  24.187  26.147   2.659  0.0963  0.4497 -0.0732
    1W        W45357  22.165  13.454   6.629  0.1564  0.2949  0.0443
    1W        W45358   6.570  18.867   5.567  0.0556 -0.0047 -0.0854
    1W        W45359   6.869  23.651   1.815 -0.0495  0.2017  0.0461
    1W        W45360  12.891   3.329   2.746  0.0301 -0.0345  0.0544
    1W        W45361  24.054   0.945   6.094 -0.2485 -0.2360  0.0678
    1W        W45362  11.731   6.891   8.244  0.1136 -0.1604 -0.1713
    1W        W45363   5.872   4.931   0.982  0.1789  0.0592  0.4300
    1W        W45364  18.834  22.972   9.504  0.1796  0.4169  0.1669
    1W        W45365  11.925   3.091   2.023 -0.0010  0.1512  0.0356
    1W        W45366  23.321  10.357   8.918 -0.0745 -0.1519 -0.0521
    1W        W45367  18.102   6.211   3.565  0.2314  0.1609 -0.2817
    1W        W45368   7.515   1.097   1.371 -0.0949  0.1575 -0.0375
    1W        W45369  19.493   4.852   8.501 -0.0714  0.2558  0.5194
    1W        W45370  24.967   0.573   0.367 -0.2728  0.0946  0.2840
    1W        W45371  28.825  16.688   0.293  0.0881  0.3812 -0.3272
    1W        W45372  22.086  21.803   7.419  0.0773 -0.1208 -0.0842
    1W        W45373  11.985  15.223   2.484  0.2300  0.0718  0.0526
    1W        W45374  25.190   5.497   1.963 -0.1832 -0.0688 -0.1679
    1W        W45375  16.927  28.351   9.611  0.0577 -0.0969  0.1486
    1W        W45376  27.459   6.444   0.952  0.1613 -0.1646  0.0015
    1W        W45377   0.399  24.399   6.736 -0.0525  0.0762 -0.1942
    1W        W45378  13.096   4.598   8.443 -0.1672  0.0906  0.0787
    1W        W45379  22.765   3.870   8.095 -0.0362  0.2026 -0.2496
    1W        W45380  12.767   7.511   0.868  0.1364  0.3392 -0.1324
    1W        W45381  25.867   2.174   0.806 -0.3333 -0.0748  0.0399
    1W        W45382   8.074  13.027   7.963  0.2242  0.1543 -0.0006
    1W        W45383  12.795   6.770   8.967  0.0727  0.0529  0.2829
    1W        W45384   0.188  14.231   9.483  0.0767  0.5565  0.0958
    1W        W45385  18.182   6.230   9.668 -0.0688  0.2486 -0.1390
    1W        W45386   8.605  20.303   7.367  0.0019  0.1685 -0.1345
    1W        W45387  19.638   9.931   1.910 -0.0730  0.0440  0.2796
    1W        W45388  14.166   1.935   9.175 -0.2051  0.0586  0.1794
    1W        W45389   8.857  27.366   9.127 -0.1723  0.0564  0.0808
    1W        W45390  23.526  24.071   0.007  0.1916  0.4038 -0.0691
    1W        W45391  21.629  11.543   7.881 -0.1517 -0.1736 -0.3087
    1W        W45392  19.781   4.657   1.564  0.4061  0.1977 -0.2015
    1W        W45393  10.555   4.761   2.310 -0.0602 -0.2591 -0.0369
    1W        W45394   8.930   3.580   3.435 -0.2728  0.0879 -0.0591
    1W        W45395  25.593  13.949   6.287 -0.3848  0.1335 -0.3053
    1W        W45396  22.211  17.604   9.679 -0.0531  0.0147 -0.0790
    1W        W45397  20.695  15.719   8.342 -0.1498  0.1352 -0.3219
    1W        W45398  15.503  24.115   1.651  0.4347 -0.0563  0.1632
    1W        W45399  18.615   5.445   0.412  0.1832 -0.0333  0.1231
    1W        W45400  18.012   1.569   7.644 -0.1230  0.0114 -0.1123
    1W        W45401   5.452   7.804   8.690  0.0275  0.1497  0.1053
    1W        W45402  26.346  17.366   5.890  0.2199 -0.3420 -0.0735
    1W        W45403  23.200  23.863   8.001  0.1091 -0.0439  0.0806
    1W        W45404  28.607  20.519   8.540 -0.3063 -0.0471  0.0171
    1W        W45405  17.882  23.571   0.953 -0.1778 -0.2776  0.3547
    1W        W45406   1.063  15.412   0.768 -0.1552  0.2173  0.1938
    1W        W45407   0.008  16.434   0.693 -0.2225 -0.2190 -0.0090
    1W        W45408   6.662  13.470   9.171 -0.0171 -0.3150  0.1706
    1W        W45409  25.492  15.108   0.700 -0.2821 -0.0919  0.2181
    1W        W45410  10.206   2.626   0.636  0.0951 -0.1838 -0.1561
    1W        W45411   5.046  16.105   0.959 -0.0826 -0.0420  0.1314
    1W        W45412  15.840  10.170   9.509  0.0340  0.1003  0.0809
    1W        W45413  13.398  17.585   1.736  0.0507 -0.0643 -0.0222
    1W        W45414  24.250  13.425   6.284 -0.0956 -0.3504 -0.1434
    1W        W45415   3.461   3.099   8.392  0.0051 -0.4483  0.0763
    1W        W45416  28.367  21.385   7.641  0.0837 -0.1286  0.1963
    1W        W45417  24.565   3.949   1.305 -0.1108  0.2737  0.3304
    1W        W45418   8.993  28.925   7.781  0.0633  0.2441  0.4393
    1W        W45419   4.004  23.374   1.009  0.0580 -0.1821  0.1537
    1W        W45420   9.100  12.515   8.938  0.0730  0.2655 -0.1982
    1W        W45421   4.362  25.704   9.061 -0.1999 -0.2711  0.3128
    1W        W45422  24.321   0.926   1.546  0.0585  0.2448 -0.1178
    1W        W45423   6.799  22.890   5.671 -0.3104  0.1074  0.0863
    1W        W45424  10.614  13.059   2.010 -0.1009  0.1823  0.0382
    1W        W45425   6.747  25.963   2.100 -0.2192 -0.2997  0.2055
    1W        W45426  15.549  22.303   0.143 -0.1312 -0.0975  0.2216
    1W        W45427   6.546  23.888   7.433  0.0205  0.2943 -0.0221
    1W        W45428  11.826  27.551   2.081  0.2138  0.2577 -0.3581
    1W        W45429   9.433  16.412   7.124  0.3307 -0.3472 -0.1324
    1W        W45430  24.503  20.469   9.277  0.1976 -0.0873  0.1980
    1W        W45431   6.163  17.964   7.037 -0.1532 -0.3311  0.2715
    1W        W45432  24.909   6.049   9.073  0.0765 -0.0686  0.0023
    1W        W45433  11.297   2.138   8.428  0.1395  0.0723  0.0128
    1W        W45434  11.361  15.334   9.424 -0.2301 -0.2738  0.1248
    1W        W45435   6.145  23.490   7.311 -0.1230  0.0731 -0.0562
    1W        W45436   1.865  19.604   0.692  0.1881  0.1905 -0.1346
    1W        W45437  24.022   8.215   2.079  0.2232  0.1935  0.3341
    1W        W45438  13.055   1.465   7.451  0.1962 -0.1159 -0.1703
    1W        W45439  27.367  21.868   0.165 -0.0342  0.1382  0.4487
    1W        W45440  10.289  20.139   6.449  0.0063 -0.5721 -0.3336
    1W        W45441  24.111  25.625   8.949  0.1338 -0.2628 -0.0042
    1W        W45442   0.046   4.023   0.003  0.1353  0.1200 -0.1355
    1W        W45443  24.589  15.970   8.639  0.3543  0.0253 -0.0491
    1W        W45444   5.601  24.383   6.769 -0.1028  0.2372  0.1469
    1W        W45445  29.087  16.406   7.519  0.0481  0.1369 -0.0014
    1W        W45446   0.184   7.181   8.639  0.2406 -0.0602  0.0571
    1W        W45447  27.688  26.712   2.158 -0.1517 -0.0101 -0.3178
    1W        W45448  22.643  22.441   8.396  0.4852  0.0322  0.4569
    1W        W45449  12.153   7.089   8.450 -0.1256  0.2507  0.1193
    1W        W45450  18.113   0.084   0.765  0.1335  0.0813  0.0258
    1W        W45451   6.635   4.134   8.536  0.0400  0.0294 -0.2334
    1W        W45452  24.758   4.223   7.914 -0.0641  0.2021  0.1074
    1W        W45453  24.331  19.999   9.471  0.1345  0.1984  0.1085
    1W        W45454  23.130  11.482   7.889 -0.1642 -0.4668 -0.3672
    1W        W45455   8.919   9.037   9.060  0.0882 -0.0179  0.0069
    1W        W45456  26.264  19.580   6.729  0.5323 -0.4156 -0.1361
    1W        W45457  11.285   2.407   7.904  0.0350  0.0966 -0.0760
    1W        W45458   2.791   6.227   8.751  0.1108 -0.2057 -0.3048
    1W        W45459  28.421  19.150   8.656 -0.0594 -0.0323  0.2206
    1W        W45460  28.173   0.136   1.361  0.3051  0.1317  0.0824
    1W        W45461   7.743  10.741   2.477  0.1038  0.0495  0.0421
    1W        W45462   4.687  28.763   8.107 -0.0736 -0.6195 -0.0851
    1W        W45463  20.156   2.209   9.536  0.1512  0.1445  0.0877
    1W        W45464   8.939  20.458   7.865 -0.1247  0.0185 -0.0040
    1W        W45465  17.995  22.307   2.531  0.0102 -0.3092 -0.0045
    1W        W45466  24.756  25.286   8.281 -0.0699  0.1634 -0.0369
    1W        W45467  22.896  14.070   8.318 -0.2730 -0.3504  0.2073
    1W        W45468  24.344  11.065   7.484 -0.0827 -0.1451 -0.0548
    1W        W45469  10.605   8.860   8.766  0.4500 -0.0369  0.0348
    1W        W45470   7.189   0.101   1.534 -0.0806  0.0739  0.0361
    1W        W45471  25.344  22.746   0.630 -0.1094  0.0286  0.2419
    1W        W45472   2.968   8.862   8.139 -0.1810 -0.0168 -0.1150
    1W        W45473   3.408   1.306   6.886  0.0914 -0.4790 -0.0390
    1W        W45474   5.239  13.265   2.381  0.0044  0.1132  0.1640
    1W        W45475  10.080  12.472   9.279  0.0083  0.2650 -0.2460
    1W        W45476   5.972  15.257   9.405 -0.1382 -0.3578  0.0519
    1W        W45477  17.860   8.254   8.879 -0.1919  0.0936  0.1375
    1W        W45478  13.843   3.378   2.185  0.2486  0.3600  0.0652
    1W        W45479  26.689  14.679   2.355  0.2679 -0.1618 -0.0802
    1W        W45480   3.369  25.432   9.228  0.1212 -0.0887 -0.1349
    1W        W45481  15.515   6.407   0.714 -0.1866 -0.1809 -0.0144
    1W        W45482  17.836  28.108   8.136  0.3897 -0.2318  0.1542
    1W        W45483   4.886  15.182   6.677  0.2062 -0.0237 -0.1715
    1W        W45484  22.794   7.247   7.088 -0.1764  0.2979  0.3592
    1W        W45485  12.078  12.499   9.177 -0.4658 -0.0926  0.0769
    1W        W45486  17.787  25.597   8.087 -0.2790  0.0996 -0.3381
    1W        W45487  22.210  15.799   2.408  0.1671 -0.0890 -0.0834
    1W        W45488   2.811   3.333   9.669  0.0200  0.3058 -0.1821
    1W        W45489  11.358   0.396   1.089 -0.2785  0.2344 -0.1446
    1W        W45490   0.188  26.436   7.945  0.1517 -0.0302  0.0616
    1W        W45491  11.097  12.258   9.058 -0.2757  0.1127 -0.1557
    1W        W45492  16.102   9.257   3.399 -0.3581 -0.0665 -0.1869
    1W        W45493  12.098   0.670   7.819  0.0658 -0.0187  0.1539
    1W        W45494  20.131  25.423   2.272  0.1905 -0.0784  0.0797
    1W        W45495   9.371   7.833   9.208  0.1029  0.1122 -0.0448
    1W        W45496  16.589   7.449   0.408 -0.0266  0.1307  0.1089
    1W        W45497  26.581  20.663   2.611 -0.0854  0.1387 -0.2424
    1W        W45498  13.127   0.067   7.325  0.0538 -0.1425 -0.0699
    1W        W45499  20.201  25.044   1.057 -0.1409 -0.1484 -0.0714
    1W        W45500   9.701  26.671   8.850 -0.0774  0.0565 -0.0596
    1W        W45501  18.540  20.620   1.758  0.1613  0.1767  0.0986
    1W        W45502  16.443  10.255   1.838 -0.1943  0.1811  0.0882
    1W        W45503  13.604  12.571   1.766 -0.4117  0.0469 -0.1755
    1W        W45504  18.382   8.759   7.705  0.0505  0.1375 -0.0011
    1W        W45505   1.195  10.798   0.353 -0.1663 -0.1700 -0.1059
    1W        W45506  19.578   5.645   8.477 -0.0543  0.2727 -0.1721
    1W        W45507  27.246   9.485   1.803 -0.0102  0.0146 -0.0504
    1W        W45508   2.603   0.588   8.837  0.0283 -0.2249  0.3030
    1W        W45509  29.273  23.384   7.182 -0.2627 -0.2869  0.5226
    1W        W45510  11.172   4.927   7.675 -0.2470  0.3413 -0.1513
    1W        W45511   2.837  18.102   1.540 -0.3718  0.1451  0.1577
    1W        W45512  13.479   0.719   2.172 -0.0982 -0.0603 -0.0051
    1W        W45513  27.527  20.396   7.364  0.2449 -0.1533  0.2114
    1W        W45514   6.408   0.607   7.355 -0.1483 -0.2106 -0.3586
    1W        W45515  20.173  19.888   9.637  0.0165 -0.0991 -0.0776
    1W        W45516   2.761   1.726   2.190 -0.0791 -0.2030  0.1478
    1W        W45517  28.970  17.870   9.047  0.1641  0.3934  0.1750
    1W        W45518  23.979   8.740   1.778 -0.1626 -0.3795 -0.2732
    1W        W45519   4.358  20.824   8.328 -0.0500 -0.0275 -0.0762
    1W        W45520  15.133  25.553   9.620  0.0156 -0.1752 -0.0032
    1W        W45521   5.413  13.460   1.937  0.2489 -0.0237  0.0802
    1W        W45522  25.905  18.894   0.454  0.0494 -0.0979  0.0750
    1W        W45523  29.331  19.570   1.355 -0.3787  0.0242 -0.1149
    1W        W45524   6.285  26.195   2.126  0.0422  0.0870 -0.0607
    1W        W45525  28.267  22.180   6.119  0.0022  0.0956 -0.1809
    1W        W45526  26.919  14.520   1.513  0.1745  0.1619 -0.1226
    1W        W45527  22.661   9.538   2.180  0.0728  0.0489  0.1871
    1W        W45528  10.517  19.349   0.228  0.1270  0.0643 -0.1206
    1W        W45529  12.059  21.215   0.585  0.0757  0.0082 -0.1552
    1W        W45530   9.866  27.723   1.212 -0.1857 -0.3640 -0.0006
    1W        W45531  14.383  24.375   2.724  0.0967 -0.0637  0.0599
    1W        W45532   5.277  19.888   1.771  0.2089  0.0248 -0.0728
    1W        W45533  23.470   5.370   0.439 -0.0831 -0.0187  0.1580
    1W        W45534  26.660  19.998   8.389 -0.0661  0.0217 -0.1226
    1W        W45535  13.545  22.622   8.497 -0.3806  0.4597 -0.1899
    1W        W45536  11.952   7.198   9.192  0.2893 -0.0681 -0.0781
    1W        W45537   6.892   2.356   8.152 -0.1263 -0.0092  0.2988
    1W        W45538  11.587  17.807   7.331  0.0314 -0.2135  0.1492
    1W        W45539   6.544  16.740   1.707 -0.2481  0.0653 -0.2871
    1W        W45540  16.680  28.951   7.628 -0.0928  0.1013 -0.2137
    1W        W45541  10.212   9.158   7.547  0.0740 -0.2382  0.2603
    1W        W45542  25.275  18.717   7.389  0.0862  0.1417  0.2745
    1W        W45543  19.693  28.774   1.038 -0.0383  0.3452  0.0623
    1W        W45544  15.595  19.582   1.814 -0.0493 -0.0819  0.0698
    1W        W45545  22.594   3.843   9.535  0.1257 -0.1306 -0.2359
    1W        W45546  22.735   8.174   8.321 -0.0743  0.0557 -0.0025
    1W        W45547  20.154   4.581   9.340 -0.0600  0.2189  0.1945
    1W        W45548  17.476   8.567   0.646  0.0439  0.1638 -0.3287
    1W        W45549  18.353  22.990   2.081 -0.0918 -0.1808  0.0711
    1W        W45550  24.702   4.729   7.902  0.2598  0.1388  0.0305
    1W        W45551   5.225   2.389   9.289 -0.3613  0.1198 -0.2606
    1W        W45552   7.409  11.101   7.509  0.1810 -0.1812 -0.1942
    1W        W45553   7.041  16.962   0.441 -0.1031  0.0610  0.2412
    1W        W45554  28.944  13.547   8.368  0.2836 -0.1373  0.0738
    1W        W45555  24.096   6.536   8.942  0.2021 -0.3608 -0.1133
    1W        W45556  20.756   5.214   6.726  0.2223 -0.1052  0.1684
    1W        W45557  12.339   7.113   0.899 -0.1077 -0.0279  0.0974
    1W        W45558  25.677   4.043   0.314 -0.0368 -0.1539 -0.2703
    1W        W45559  24.641   0.135   9.332 -0.0858  0.0236 -0.2411
    1W        W45560  17.649  19.499   9.673  0.2893  0.1568  0.0666
    1W        W45561  18.167  13.894   8.140  0.1482 -0.0253 -0.0081
    1W        W45562  19.326  20.310   1.968 -0.0480 -0.0471 -0.0681
    1W        W45563  25.578  23.724   0.767  0.2946 -0.2396 -0.1817
    1W        W45564  10.591  21.510   6.469  0.1302  0.2890  0.1455
    1W        W45565  18.564  25.686   9.042 -0.0877  0.1777  0.0918
    1W        W45566   5.096  18.300   0.074 -0.0374 -0.1764 -0.1522
    1W        W45567   5.765   8.352   1.446  0.0203 -0.0897 -0.2140
    1W        W45568   8.010  14.321   8.464  0.1049 -0.0463  0.1471
    1W        W45569  17.839  28.123   0.549  0.2648 -0.0362 -0.2192
    1W        W45570  24.268  28.181   0.170  0.1469 -0.0831  0.0093
    1W        W45571   6.605  22.100   6.160 -0.0290 -0.2478  0.0115
    1W        W45572  13.125   5.410   3.057  0.3424  0.1857 -0.3290
    1W        W45573   1.590   3.818   1.738  0.2958  0.0113  0.0852
    1W        W45574  13.387  14.084   0.969 -0.1573  0.1986 -0.4330
    1W        W45575  28.985  10.591   7.236 -0.4196 -0.1906  0.0489
    1W        W45576  20.002   6.692   7.899  0.1448 -0.0065  0.1579
    1W        W45577  12.370  16.222   1.693  0.0262  0.1500  0.0026
    1W        W45578  10.692   3.522   2.821  0.3075  0.1733 -0.0798
    1W        W45579  26.618  23.669   8.294  0.0916  0.1020  0.1696
    1W        W45580   0.060   0.251   0.528 -0.1309 -0.1033  0.1233
    1W        W45581   0.767  18.926   6.546 -0.0630 -0.2405  0.0329
    1W        W45582   4.905   7.332   9.094 -0.0482 -0.0877 -0.1921
    1W        W45583   3.054  17.406   8.420  0.2179  0.2518 -0.0123
    1W        W45584   5.309   0.101   2.761  0.2954  0.3545  0.0599
    1W        W45585  27.052  20.381   7.339  0.0518  0.2405  0.1390
    1W        W45586  26.524  13.633   0.629 -0.1867  0.0850 -0.1727
    1W        W45587   5.933   6.252   2.822 -0.0223 -0.2001 -0.0571
    1W        W45588  16.185  15.264   7.883  0.0995 -0.2524  0.1065
    1W        W45589  25.552  16.973   1.457 -0.0538 -0.0524  0.0319
    1W        W45590  26.960   2.821   1.605 -0.2401 -0.0379  0.1264
    1W        W45591  11.748  24.318   8.221  0.1036  0.0719 -0.0721
    1W        W45592  28.587   7.688   8.169 -0.0392  0.0225  0.1894
    1W        W45593  10.759   5.388   3.989 -0.3158 -0.2772 -0.0795
    1W        W45594  13.509  14.221   1.526  0.1551  0.0645  0.0703
    1W        W45595  14.756   3.612   0.943 -0.0750  0.1936 -0.3142
    1W        W45596   8.184  22.447   8.211 -0.2802 -0.1108 -0.0114
    1W        W45597  23.906  27.903   2.117  0.0094 -0.0627 -0.0030
    1W        W45598  28.327  28.995   8.119 -0.1576 -0.2763  0.1592
    1W        W45599  26.454   8.704   8.974  0.1293  0.2123 -0.0252
    1W        W45600  24.768  19.394   7.023  0.3735  0.0599  0.0490
    1W        W45601  11.098  27.166   1.223  0.2633 -0.1414 -0.0770
    1W        W45602   6.059  24.619   7.895  0.1483 -0.2748 -0.1633
    1W        W45603  29.070  25.348   2.846 -0.0260 -0.1416  0.0969
    1W        W45604  21.951   1.043   7.992  0.1425 -0.2623 -0.2855
    1W        W45605   0.148  18.001   7.718  0.5080  0.2216  0.3617
    1W        W45606  12.335  13.325   1.525 -0.5719 -0.2184 -0.1379
    1W        W45607  22.112  17.075   9.671  0.0367 -0.2500 -0.2880
    1W        W45608  18.935  26.721   3.795 -0.0591  0.0377 -0.1304
    1W        W45609  26.706  17.394   6.811 -0.0529  0.1528 -0.3721
    1W        W45610  26.141   1.581   6.288  0.5249 -0.0596 -0.0198
    1W        W45611  15.563  23.357   1.464 -0.2801 -0.0539 -0.2214
    1W        W45612  20.272  12.946   2.117  0.0811 -0.1382 -0.0624
    1W        W45613   7.170  25.649   7.698 -0.2008  0.2594 -0.1434
    1W        W45614  10.923  17.925   2.207 -0.2461  0.0275 -0.2480
    1W        W45615   0.684  22.231   6.473 -0.4836 -0.2014 -0.3645
    1W        W45616  24.420  20.399   1.028  0.0577  0.4218 -0.1393
    1W        W45617  27.000  16.801   6.866  0.0892  0.0662 -0.0070
    1W        W45618  18.777  19.170   1.540  0.1982  0.1189  0.0814
    1W        W45619  13.046  23.237   7.188 -0.1053 -0.1989 -0.0542
    1W        W45620   5.183  14.571   9.645  0.1498 -0.2935  0.4622
    1W        W45621  18.950   7.744   7.746  0.3944  0.1826 -0.0782
    1W        W45622  13.028  14.339   0.399 -0.1292  0.2867  0.1737
    1W        W45623  11.988   9.228   8.938  0.1498 -0.0953  0.0656
    1W        W45624   9.906   6.484   9.597  0.1904  0.1458 -0.4205
    1W        W45625   7.414   4.396   7.664 -0.1267  0.0504  0.4975
    1W        W45626   5.273   4.016   2.146 -0.1251  0.1039 -0.1987
    1W        W45627  15.271  21.281   7.499 -0.2432  0.0979  0.2079
    1W        W45628   7.986  12.105   0.537 -0.1587 -0.0664  0.0959
    1W        W45629  23.532   6.205   6.361 -0.0504  0.1176 -0.3272
    1W        W45630  25.040  14.330   0.743  0.1089 -0.0828  0.0800
    1W        W45631   2.736  27.858   8.228  0.0090  0.2378  0.0616
    1W        W45632  26.830   7.872   0.387  0.4085 -0.0714  0.2633
    1W        W45633   7.556   3.514   8.456  0.0179 -0.1065 -0.0540
    1W        W45634  21.408   5.936   0.023 -0.0148  0.0138 -0.0532
    1W        W45635   4.231   9.051   1.500  0.1626 -0.1340  0.0777
    1W        W45636  27.264   8.940   3.062  0.1647 -0.1691 -0.3207
    1W        W45637  12.847  17.220   9.126  0.0833 -0.2562  0.3077
    1W        W45638  26.103   8.938   1.634 -0.0684 -0.0128 -0.1036
    1W        W45639   5.214  27.181   1.178  0.1036  0.3141 -0.0586
    1W        W45640   8.004  26.818   3.324  0.1310 -0.0365  0.1095
    1W        W45641  19.820  26.648   8.345 -0.2036 -0.1298 -0.1701
    1W        W45642   6.631  11.644   0.249 -0.1564 -0.1282  0.3302
    1W        W45643   5.101  27.611   0.243 -0.4903  0.0344 -0.2104
    1W        W45644   0.306  25.989   8.241 -0.1259 -0.1799  0.1479
    1W        W45645  26.943  11.573   9.243 -0.3582  0.1099 -0.6387
    1W        W45646   2.146  24.687   0.850 -0.0119 -0.1130 -0.1061
    1W        W45647  28.700  12.362   6.121  0.3258  0.0305 -0.0459
    1W        W45648   7.360   6.957   6.499 -0.0138 -0.1937 -0.1923
    1W        W45649  11.464  25.311   7.069 -0.1362  0.0207 -0.2371
    1W        W45650  12.816  23.358   1.186 -0.2726 -0.0891  0.1254
    1W        W45651  10.801   0.812   0.217  0.0793 -0.3883 -0.2919
    1W        W45652   7.330  18.862   9.015  0.1337  0.1730 -0.0788
    1W        W45653  26.272  16.671   1.529 -0.0321 -0.0553 -0.0396
    1W        W45654  24.154  23.478   0.748  0.1630  0.1558  0.0156
    1W        W45655  10.640  23.946   1.031  0.2347 -0.1417 -0.0464
    1W        W45656   2.778  17.354   2.242 -0.2389 -0.0299  0.2502
    1W        W45657  27.810   7.414   8.436 -0.1786  0.2350 -0.1577
    1W        W45658  20.305   5.563   6.947  0.0635 -0.0549 -0.2150
    1W        W45659   0.163  29.310   9.210  0.0965 -0.0503  0.0034
    1W        W45660  26.457   7.971   8.418 -0.0244 -0.1639  0.2039
    1W        W45661   5.516  15.872   7.780  0.3219 -0.2901 -0.0137
    1W        W45662   0.151   4.302   1.253 -0.2985 -0.0425  0.3128
    1W        W45663  21.379   2.309   0.707 -0.3441 -0.0746  0.0474
    1W        W45664  24.920   7.747   6.052  0.2106 -0.1552  0.1872
    1W        W45665  16.565   9.302   8.665 -0.0079  0.1984 -0.2254
    1W        W45666   4.145  27.573   8.175 -0.1958 -0.0260  0.4357
    1W        W45667  10.071   6.403   0.880 -0.1010  0.0221  0.2695
    1W        W45668  25.600  19.519   2.553 -0.2226  0.1145 -0.0934
    1W        W45669  20.774  23.316   8.287 -0.0120  0.0171 -0.0147
    1W        W45670  16.223  24.035   0.877 -0.2780 -0.1598 -0.0691
    1W        W45671  28.900   6.020   5.853 -0.0773 -0.1540  0.1808
    1W        W45672  21.979  21.540   5.980  0.1636  0.0752 -0.1942
    1W        W45673   9.249   6.260   1.313  0.0119 -0.1745  0.0562
    1W        W45674   7.585  20.737   2.384 -0.0957 -0.2063  0.1033
    1W        W45675  28.081  16.550   1.696  0.1328  0.1899  0.2486
    1W        W45676  24.818  25.928   9.437 -0.0348 -0.2013  0.0971
    1W        W45677   6.272  13.029   1.273  0.2144 -0.3652  0.1338
    1W        W45678   7.716  17.441   0.297  0.1676 -0.1195 -0.2619
    1W        W45679  22.389  24.738   8.388 -0.0118  0.0596  0.1249
    1W        W45680   8.151  21.257   9.344 -0.1372  0.0575  0.3374
    1W        W45681  21.776  28.246   9.251  0.0563  0.3858  0.1879
    1W        W45682   0.770   1.086   9.634  0.0711 -0.2558 -0.0534
    1W        W45683  16.119  26.410   7.483  0.1130  0.1969  0.0161
    1W        W45684  20.960   3.171   0.845 -0.0169 -0.1633 -0.1994
    1W        W45685  19.731  16.662   1.616 -0.3676  0.1870 -0.1030
    1W        W45686   2.830   9.719   6.435 -0.1047 -0.0085  0.1096
    1W        W45687   5.425   1.185   0.304 -0.1184 -0.0402  0.0887
    1W        W45688   1.646   6.133   0.359  0.0136 -0.0311  0.0454
    1W        W45689  27.159  24.866   7.257 -0.0180  0.3088 -0.3788
    1W        W45690  13.984  26.049   7.847  0.0865 -0.2819  0.1755
    1W        W45691  19.209   7.436   8.903 -0.3118  0.0733 -0.2852
    1W        W45692  18.374  21.111   0.003  0.0848 -0.1356 -0.1306
    1W        W45693  13.528   5.882   3.990  0.0257 -0.1558  0.0379
    1W        W45694  12.559  24.019   0.328 -0.0050 -0.1873  0.0750
    1W        W45695  21.721  22.466   9.623 -0.2337  0.0355  0.0225
    1W        W45696  21.758  16.572   2.363  0.1269  0.2565 -0.0989
    1W        W45697  12.151  14.872   9.328 -0.0429 -0.3197  0.2128
    1W        W45698  20.906  15.187   9.535 -0.0716  0.1586  0.1223
    1W        W45699   5.913   8.317   2.786  0.1103 -0.2754  0.1371
    1W        W45700  19.987   0.144   2.394 -0.2643 -0.0641  0.3161
    1W        W45701   9.685   3.242   3.182 -0.0231  0.0444 -0.3283
    1W        W45702  23.830   9.594   2.529  0.0277 -0.2208 -0.2510
    1W        W45703  16.742   8.258   7.858  0.2146  0.0622  0.3790
    1W        W45704  25.885  17.712   2.558 -0.0785 -0.2229 -0.3648
    1W        W45705  15.590   7.437   8.638 -0.0232 -0.4209 -0.2648
    1W        W45706   7.492  10.726   7.984  0.0167  0.1525  0.1154
    1W        W45707  20.030  26.107   7.459 -0.2063 -0.0251  0.2583
    1W        W45708  15.025   4.983   3.475 -0.1345 -0.0631  0.0830
    1W        W45709  19.774  13.851   0.970 -0.0451  0.0031 -0.1284
    1W        W45710  25.064  14.794   9.482  0.1085  0.0579  0.2005
    1W        W45711   6.264  14.355   7.332 -0.0279  0.0673 -0.0782
    1W        W45712  14.090   1.796   9.652 -0.2626 -0.0624 -0.0923
    1W        W45713   5.330   1.161   8.285 -0.1277  0.0607 -0.1701
    1W        W45714   4.766  14.394   9.319  0.1939  0.0331 -0.4200
    1W        W45715  26.802   6.429   1.966 -0.0029 -0.2152  0.0332
    1W        W45716  22.022  15.171   8.411 -0.2396 -0.4244  0.1257
    1W        W45717  17.232  18.537   9.556 -0.2643  0.2301 -0.1737
    1W        W45718  17.495  24.910   1.090  0.0089  0.3405  0.1097
    1W        W45719   2.767  14.330   2.176  0.4000  0.0023 -0.0963
    1W        W45720   6.160  12.281   7.987  0.1581 -0.0296 -0.0726
    1W        W45721  28.383   7.059   6.819 -0.2358 -0.1200 -0.0425
    1W        W45722  23.953   9.169   8.306  0.1825 -0.0930  0.1592
    1W        W45723  24.210  20.569   3.023 -0.2777  0.3036 -0.1498
    1W        W45724  28.248   0.273   7.603 -0.0931  0.0387 -0.1903
    1W        W45725  16.667   1.396   0.395  0.6053 -0.2628 -0.2510
    1W        W45726  13.169   5.135   2.172  0.1491  0.1869 -0.1097
    1W        W45727  21.303  20.331   9.119  0.4668  0.3322  0.0211
    1W        W45728  21.901  11.905   8.465 -0.2510 -0.0268  0.0829
    1W        W45729  22.035  11.243   7.814  0.0803  0.2133  0.0673
    1W        W45730  17.949   1.193   2.840 -0.0395  0.1855  0.1608
    1W        W45731   7.774  26.969   6.528  0.1262  0.0111  0.0964
    1W        W45732   9.834  19.077   0.173 -0.2289 -0.2465  0.0100
    1W        W45733   0.260  24.544   9.472  0.0475 -0.2127  0.0653
    1W        W45734  21.783   2.455   6.703 -0.0611  0.1470 -0.2466
    1W        W45735  27.705  13.506   7.099  0.1301  0.0067 -0.2992
    1W        W45736   1.029   4.497   8.037 -0.2117 -0.0864  0.0200
    1W        W45737  23.315   5.288   5.659 -0.0708 -0.2607 -0.1391
    1W        W45738   8.753   3.254   0.561  0.1608  0.0147 -0.1627
    1W        W45739   6.557  16.479   9.211 -0.1274 -0.0255  0.1327
    1W        W45740  26.435   2.366   6.887 -0.0652  0.0428 -0.2648
    1W        W45741  28.200  23.010   8.572  0.3356  0.1287 -0.1503
    1W        W45742   5.839  26.186   2.502  0.0797 -0.1683  0.0935
    1W        W45743  18.271   4.785   7.581 -0.1743 -0.1737 -0.0658
    1W        W45744   9.387   3.242   2.038 -0.1532 -0.3544 -0.0077
    1W        W45745   4.321   6.348   2.750 -0.2553 -0.0653 -0.2796
    1W        W45746   0.158   9.423   2.530 -0.1898 -0.0375  0.0815
    1W        W45747   3.802  10.552   0.574  0.1005 -0.0763  0.4588
    1W        W45748   7.237  29.264   1.996  0.1371  0.1098  0.0315
    1W        W45749  23.213   2.618   7.938 -0.1984  0.3425 -0.0182
    1W        W45750  17.930   6.874   8.425  0.1665  0.0594  0.0362
    1W        W45751  27.785   7.611   0.062  0.2512 -0.1820 -0.3572
    1W        W45752  27.617   8.122   0.302 -0.3069  0.1232  0.2079
    1W        W45753   6.951  18.975   7.348 -0.1934  0.0078  0.0232
    1W        W45754   6.085   7.553   9.496 -0.0755  0.1550  0.0830
    1W        W45755  22.002  17.930   8.970  0.2021  0.0359  0.3011
    1W        W45756   4.259  23.055   0.743  0.3237  0.0618 -0.1269
    1W        W45757   4.502  17.917   0.689  0.0411 -0.3852  0.1534
    1W        W45758  20.770   0.982   0.838 -0.0083 -0.0106 -0.3447
    1W        W45759  11.042   1.584   7.515 -0.2814  0.2613 -0.1596
    1W        W45760  21.693  20.584   8.331 -0.1267 -0.1590 -0.0162
    1W        W45761   1.915   0.995   1.302 -0.4475  0.3132 -0.0233
    1W        W45762  22.189  17.506   8.680  0.3835 -0.0686  0.0681
    1W        W45763  18.547  19.944   9.098  0.3987 -0.0698  0.1778
    1W        W45764   0.322  22.515   3.096 -0.2835 -0.0627 -0.0183
    1W        W45765   7.895  16.500   1.573  0.1399 -0.0327 -0.0890
    1W        W45766  25.409  10.033   8.725 -0.1644  0.2274  0.0503
    1W        W45767   4.570  28.512   0.660  0.1761  0.3002  0.1956
    1W        W45768  20.118  27.285   9.027 -0.0469  0.0684  0.1391
    1W        W45769   1.099  10.456   9.586  0.1500 -0.2537 -0.3332
    1W        W45770  13.164  24.989   9.394  0.2020 -0.0248 -0.2814
    1W        W45771  11.390  26.655   1.358  0.1266 -0.2947  0.0994
    1W        W45772   4.946  10.395   2.786 -0.0056 -0.0072  0.0132
    1W        W45773  19.236  29.125   2.768  0.1387 -0.2363  0.1376
    1W        W45774  25.007   5.344   6.395 -0.1515  0.2272  0.0455
    1W        W45775   7.467  11.409   0.813 -0.3474 -0.1082 -0.2259
    1W        W45776  21.410  21.622   9.248 -0.2104 -0.1389 -0.3364
    1W        W45777  11.341   4.616   3.226  0.0748  0.2326  0.1012
    1W        W45778   3.467   5.826   0.053 -0.1131  0.4044 -0.1013
    1W        W45779  10.461  16.072   8.495  0.2058 -0.1691  0.3056
    1W        W45780  15.840  11.244   1.326  0.0036  0.0770  0.0637
    1W        W45781  17.797  11.410   9.253 -0.1901  0.5011 -0.5033
    1W        W45782  20.630  10.365   9.064 -0.3427 -0.2784  0.1858
    1W        W45783  10.647  16.937   8.331 -0.2065 -0.2201 -0.1568
    1W        W45784   6.851   8.015   2.769  0.1534  0.1212  0.0191
    1W        W45785  26.445  17.811   6.598 -0.2515 -0.0767 -0.1160
    1W        W45786  11.801   4.905   3.047  0.3552 -0.1408 -0.1665
    1W        W45787  25.438   1.350   5.848 -0.0719 -0.0494 -0.1292
    1W        W45788   9.138   0.644   8.081 -0.2087  0.1879 -0.1301
    1W        W45789  16.298   9.177   0.061 -0.2860  0.1913  0.0131
    1W        W45790   6.192   6.031   7.618  0.4292  0.1237 -0.0586
    1W        W45791  26.071   6.909   5.906  0.1377 -0.0978  0.0019
    1W        W45792  13.041  18.838   8.436  0.0590  0.0012 -0.0148
    1W        W45793   8.468  22.579   1.753  0.0077 -0.3791 -0.3458
    1W        W45794  21.804  15.003   7.621 -0.1141 -0.1025  0.2300
    1W        W45795   1.465   5.557   0.438 -0.1733 -0.1152  0.1017
    1W        W45796   5.935   3.463   7.566  0.1754  0.0970  0.0922
    1W        W45797  16.184  20.189   2.640  0.2724  0.0596  0.0140
    1W        W45798  27.821  11.297   7.573 -0.0534  0.0283  0.1350
    1W        W45799  12.645   8.831   8.271 -0.0631  0.2758 -0.1891
    1W        W45800  25.633   3.608   2.786  0.0883  0.1834 -0.1502
    1W        W45801  16.276  10.776   8.777 -0.2570  0.1152 -0.1691
    1W        W45802   4.738   3.247   6.069 -0.3733 -0.0688  0.1266
    1W        W45803  13.349   8.421   0.635 -0.1681 -0.0802  0.0980
    1W        W45804  12.140  24.565   8.539  0.2037 -0.0141  0.0754
    1W        W45805  27.023   1.072   1.383  0.0843 -0.0935 -0.0978
    1W        W45806  25.081  17.120   6.808 -0.0903 -0.2652 -0.0990
    1W        W45807   4.299  19.582   7.385 -0.0887 -0.2009  0.2932
    1W        W45808  14.359   2.083   1.274  0.1598 -0.1259  0.0243
    1W        W45809   4.423   4.357   7.519  0.0272  0.0931 -0.2734
    1W        W45810   7.967   5.268   2.568  0.0923 -0.3692 -0.0104
    1W        W45811  23.600  29.356   2.598  0.1841 -0.1902 -0.1885
    1W        W45812  14.278  20.389   8.579  0.0502  0.0698 -0.2984
    1W        W45813   7.018  12.308   3.007 -0.3842 -0.0219 -0.1097
    1W        W45814   8.900  23.794   1.442  0.2294  0.0700 -0.0025
    1W        W45815   4.077  28.313   9.532  0.1539 -0.0111  0.1734
    1W        W45816  23.725  24.101   0.448  0.5503 -0.3673  0.0036
    1W        W45817   4.463  29.177   9.508 -0.3719  0.0372  0.1104
    1W        W45818  10.398  25.424   1.718 -0.3668  0.3594 -0.1379
    1W        W45819  20.399  22.128   8.554 -0.2087  0.1927  0.2089
    1W        W45820   3.477   3.898   1.954  0.3088 -0.0797 -0.1107
    1W        W45821  18.564  14.717   7.761  0.0782  0.1096  0.0399
    1W        W45822   2.750  17.168   2.798 -0.0657 -0.2757  0.2635
    1W        W45823  10.952   5.336   0.597 -0.0391  0.2905 -0.3731
    1W        W45824  21.124  24.979   2.305 -0.0454 -0.3310  0.0081
    1W        W45825  24.826  18.067   9.185  0.0366  0.1008  0.0637
    1W        W45826   4.929   8.245   6.887 -0.1836  0.0501 -0.2952
    1W        W45827   1.223  18.853   2.937 -0.0957  0.0581 -0.0537
    1W        W45828  26.902  15.568   6.507  0.2106 -0.0673  0.0814
    1W        W45829   9.483  28.692   8.783 -0.0245  0.2044 -0.0725
    1W        W45830  10.511  24.877   0.015  0.1930  0.1881 -0.0165
    1W        W45831  10.025   3.474   9.502 -0.2007 -0.1804  0.1773
    1W        W45832   4.263   8.354   8.930  0.3225  0.2717  0.1355
    1W        W45833  18.099  10.081   2.351 -0.0472 -0.0573  0.2086
    1W        W45834   9.326  24.021   9.072 -0.0641 -0.0466  0.0716
    1W        W45835  14.822  11.085   2.131  0.1328  0.0754  0.0493
    1W        W45836   9.485   9.621   0.052 -0.0041 -0.2279 -0.1506
    1W        W45837   8.319   0.070   8.573 -0.1169 -0.1595 -0.0674
    1W        W45838   8.585   3.861   1.360 -0.3670  0.0800 -0.1429
    1W        W45839  16.539  21.897   9.515 -0.0865  0.1898  0.0729
    1W        W45840  27.462   0.291   7.110 -0.1580  0.1075 -0.0713
    1W        W45841   5.883   0.556   9.190 -0.1616 -0.1844 -0.2001
    1W        W45842   0.711   2.566   0.942 -0.0058  0.0649 -0.2186
    1W        W45843  17.253  13.814   0.614  0.0461 -0.3004  0.0733
    1W        W45844  10.839   3.078   1.928  0.0016  0.0882  0.4420
    1W        W45845  12.398   9.293   1.071  0.4479  0.0553  0.3322
    1W        W45846  25.094  12.713   7.784 -0.1717 -0.1577  0.0231
    1W        W45847  20.419   2.835   9.157  0.1892  0.0962 -0.1794
    1W        W45848  12.482  15.185   7.627 -0.1388 -0.4105 -0.1666
    1W        W45849  16.763  11.395   1.266  0.1882  0.1652  0.2011
    1W        W45850   0.785  22.547   7.707 -0.1235  0.0651  0.0383
    1W        W45851   3.814  11.173   7.698  0.1349 -0.1631 -0.0840
    1W        W45852   9.057  17.255   1.831  0.0100  0.2571  0.1219
    1W        W45853  21.853  25.049   0.316  0.0787  0.2092  0.2808
    1W        W45854  10.680  14.560   6.836  0.2877 -0.0944  0.0453
    1W        W45855   9.189  11.672   8.494 -0.1868  0.1459  0.1398
    1W        W45856  25.233  25.675   9.557 -0.0493  0.0206  0.0686
    1W        W45857   9.660  25.773   8.430 -0.0999  0.2155 -0.0218
    1W        W45858  24.231  26.751   1.855  0.0502  0.2666  0.1467
    1W        W45859  22.651   2.894   6.301  0.1717 -0.0786 -0.0115
    1W        W45860  20.598  28.574   8.306 -0.3623  0.1632 -0.0748
    1W        W45861  21.226   9.783   2.652  0.2166 -0.1843  0.0248
    1W        W45862   9.636  25.456   8.035  0.1824  0.2113  0.3317
    1W        W45863   8.763  18.561   0.730 -0.0871 -0.1272 -0.0997
    1W        W45864  21.501   9.685   6.844  0.0801 -0.0879 -0.0585
    1W        W45865  11.401  21.677   1.740 -0.0119 -0.2098 -0.1141
    1W        W45866  20.096  11.685   7.366  0.1258  0.0057 -0.1918
    1W        W45867  18.413   0.041   0.379 -0.1472  0.2411 -0.0354
    1W        W45868  10.015  24.456   9.345  0.1637  0.2375 -0.0536
    1W        W45869  15.474  21.645   7.132  0.2295 -0.1777  0.0228
    1W        W45870  22.482  15.067   1.162 -0.0330 -0.0047 -0.2293
    1W        W45871   7.291  15.495   6.486  0.2587 -0.0070  0.1007
    1W        W45872   8.355  16.530   3.046  0.0100  0.1141  0.3414
    1W        W45873   0.830   1.139   9.025 -0.1060 -0.2335  0.0835
    1W        W45874  20.641  15.265   0.404  0.0027 -0.3955  0.0330
    1W        W45875   6.049  29.121   8.477 -0.0722 -0.2425  0.1717
    1W        W45876  28.468  21.081   1.804  0.2986  0.3935  0.0157
    1W        W45877  24.475   6.991   8.125  0.1057  0.0227 -0.1175
    1W        W45878  12.723  25.219   6.663 -0.1013 -0.0446 -0.1112
    1W        W45879  27.329  21.169   2.346  0.2055  0.1695  0.1973
    1W        W45880   6.016   9.648   9.368  0.0716  0.2008 -0.2760
    1W        W45881  20.974  21.524   2.124 -0.0555  0.4395  0.1814
    1W        W45882  22.912  25.201   3.635 -0.0060  0.2373  0.0248
    1W        W45883  25.836  19.839   2.242 -0.2393 -0.0524 -0.3971
    1W        W45884  12.909   3.453   3.367  0.0467 -0.2489 -0.2111
    1W        W45885   6.299   2.458   0.101  0.0265  0.2125 -0.0731
    1W        W45886   5.247   9.324   9.001 -0.0566 -0.1463 -0.1194
    1W        W45887  29.052  12.689   9.563  0.2268  0.0650  0.1485
    1W        W45888  26.425   5.626   6.506  0.1856  0.1519  0.0258
    1W        W45889  28.234  11.759   7.835 -0.3647 -0.3253  0.0733
    1W        W45890  13.050   3.433   8.266  0.0031  0.1309  0.3091
    1W        W45891  15.922  21.646   7.963  0.0530  0.0133  0.1074
    1W        W45892   9.754   8.551   8.830  0.0917  0.2783 -0.2361
    1W        W45893  12.221  27.380   3.763 -0.5021 -0.0411 -0.0515
    1W        W45894  15.733  11.712   9.081  0.0397 -0.2690 -0.0625
    1W        W45895   1.584  16.102   8.036 -0.0932  0.1045 -0.0730
    1W        W45896  14.540  21.014   7.158 -0.1105 -0.3307  0.0681
    1W        W45897   1.680  16.630   8.150  0.2684  0.2121 -0.0930
    1W        W45898   1.138  23.474   0.712  0.0750  0.0095 -0.0682
    1W        W45899  15.924  19.245   1.611 -0.0894  0.0709 -0.1616
    1W        W45900  27.388  22.716   6.959  0.0290 -0.0345 -0.1449
    1W        W45901  14.853  14.520   9.645  0.1547 -0.0660  0.0527
    1W        W45902   5.604  12.993   6.790 -0.1765  0.0745  0.1250
    1W        W45903  15.471  26.884   0.396  0.0183  0.4139  0.2352
    1W        W45904   9.470  15.634   0.791  0.2409  0.0954  0.0033
    1W        W45905  28.957   7.101   7.483 -0.0700  0.3261 -0.3032
    1W        W45906   3.406  19.045   8.594  0.0444 -0.0391  0.0547
    1W        W45907   4.083  17.700   0.561  0.1575 -0.0921 -0.0552
    1W        W45908   6.884  10.653   1.173 -0.0288  0.2922  0.3122
    1W        W45909   4.925  24.461   9.072  0.1323  0.2063  0.2496
    1W        W45910  28.104  26.537   7.437  0.0283 -0.0636 -0.1956
    1W        W45911  14.182  25.125   1.893 -0.1605 -0.0437  0.0502
    1W        W45912  16.338  29.077   4.033 -0.1948  0.0123  0.0538
    1W        W45913  14.703  21.081   1.424 -0.1504 -0.0773  0.1345
    1W        W45914  28.400   9.471   0.962 -0.1499  0.3772  0.1463
    1W        W45915  27.124  25.611   9.488  0.1581  0.1877 -0.1476
    1W        W45916   3.561  28.818   0.348  0.0677  0.0476  0.1091
    1W        W45917   3.975   8.600   7.194 -0.3285  0.2683 -0.3131
    1W        W45918  20.085   7.992   8.898  0.3032  0.1454 -0.2999
    1W        W45919  25.523  11.467   7.889 -0.0690  0.2785 -0.2305
    1W        W45920  16.675  29.264   0.571 -0.5494 -0.2014 -0.4569
    1W        W45921  21.449  20.465   1.529 -0.0702  0.3399  0.0852
    1W        W45922  11.387  22.574   0.297  0.2552 -0.1820 -0.0405
    1W        W45923   8.024  25.734   1.690  0.2807  0.0820 -0.0899
    1W        W45924  14.136  16.142   7.503  0.0452  0.1622 -0.0186
    1W        W45925  11.378   7.368   8.877  0.2047  0.1956  0.1167
    1W        W45926   3.598  11.805   0.779 -0.0495  0.0494 -0.0702
    1W        W45927  27.434   1.996   6.580 -0.1477 -0.3079  0.0015
    1W        W45928  14.685  19.222   7.804  0.2870  0.0350 -0.0529
    1W        W45929   9.022  20.940   2.011  0.0216  0.1677 -0.2402
    1W        W45930  10.259   5.087   8.092  0.3093 -0.0664  0.0530
    1W        W45931   9.722   1.926   0.868  0.1430  0.1342  0.2868
    1W        W45932   8.738  26.957   1.016  0.3350 -0.2520  0.2750
    1W        W45933  23.392  27.166   8.884  0.2577 -0.0760 -0.1448
    1W        W45934  15.368   1.525   3.451 -0.0653  0.1039 -0.0439
    1W        W45935   1.237  20.528   0.940  0.1436  0.3265 -0.0345
    1W        W45936   6.819   6.979   3.343  0.1433 -0.0116 -0.0817
    1W        W45937  25.906   3.931   7.304  0.0015  0.0362  0.3682
    1W        W45938  15.938   3.082   1.355 -0.2173  0.0598 -0.0323
    1W        W45939  12.288  26.472   2.496 -0.0495  0.2673  0.4134
    1W        W45940  15.313  14.283   7.331  0.0914 -0.0762 -0.0545
    1W        W45941   0.269  17.446   1.978  0.0943  0.0225 -0.3209
    1W        W45942   6.906   4.527   2.831  0.1927 -0.0718 -0.1272
    1W        W45943   1.163  19.663   1.839 -0.2000 -0.2956 -0.0831
    1W        W45944  22.515  21.968   8.520  0.0307  0.0973  0.1642
    1W        W45945   8.852   4.036   2.213  0.0132  0.0554  0.0820
    1W        W45946   2.588  22.773   0.997  0.1214 -0.1942 -0.2037
    1W        W45947  12.350   0.635   9.213 -0.0322 -0.1043 -0.0088
    1W        W45948   2.732  15.721   6.858  0.2564  0.0898 -0.6176
    1W        W45949  26.350  25.850   3.196  0.1093  0.1856  0.2068
    1W        W45950  13.084  17.712   1.327 -0.1491  0.2596 -0.1496
    1W        W45951  26.548  11.783   5.961 -0.3601 -0.3178 -0.2128
    1W        W45952   8.431   5.329   2.972 -0.1334 -0.0565  0.0093
    1W        W45953   7.701   2.476   0.223 -0.2410  0.1403  0.2641
    1W        W45954  21.201  14.636   6.646 -0.1581  0.0424 -0.2852
    1W        W45955   3.426   2.487   8.319 -0.2453  0.1033  0.0520
    1W        W45956  11.035  21.771   8.186  0.0753 -0.1214 -0.2121
    1W        W45957  22.794  24.049   1.631 -0.1534 -0.2907 -0.2283
    1W        W45958  22.798  19.196   8.474 -0.1733 -0.0388 -0.0985
    1W        W45959   5.739  17.597   6.958 -0.1104  0.1842 -0.0470
    1W        W45960   7.600  17.811   0.688  0.3244 -0.2639  0.1880
    1W        W45961  10.259  20.847   7.552 -0.0191 -0.0229  0.4240
    1W        W45962  16.171  13.911   7.430 -0.2727  0.1569  0.0461
    1W        W45963  21.390   7.442   6.744  0.2059 -0.1522  0.2122
    1W        W45964   0.261   3.529   6.374 -0.0200 -0.0494 -0.4183
    1W        W45965  27.073  19.843   8.069 -0.1942 -0.1974  0.1573
    1W        W45966   7.221  19.405   7.291 -0.1805  0.1803 -0.0385
    1W        W45967  18.404  20.117   2.056 -0.0145 -0.0730  0.1783
    1W        W45968  13.966   8.828   7.996 -0.1835  0.0636 -0.0397
    1W        W45969   9.048  27.057   2.265 -0.2108  0.0602 -0.1235
    1W        W45970  14.459   9.629   9.031 -0.0438  0.0947  0.1416
    1W        W45971   4.567  24.814   7.903 -0.0830 -0.0912  0.1255
    1W        W45972  17.563  23.849   7.907  0.3693  0.0753 -0.0450
    1W        W45973  14.850  28.195   1.422 -0.2510 -0.1126  0.1673
    1W        W45974  23.934  17.699   0.647 -0.1057 -0.2390  0.3589
    1W        W45975  13.767  26.638   9.367 -0.6207  0.0167  0.0709
    1W        W45976   3.931  12.783   7.972  0.1508  0.4847  0.0385
    1W        W45977  28.107  18.910   1.111 -0.2217  0.2416 -0.1242
    1W        W45978   1.876  10.681   2.596  0.0498  0.1735 -0.1893
    1W        W45979   0.533   7.635   9.632  0.4375  0.0111 -0.1628
    1W        W45980  26.038  27.655   9.342  0.0547  0.0917  0.1429
    1W        W45981  26.461  15.536   6.369  0.2806  0.1809 -0.0112
    1W        W45982  21.859   1.053   0.990  0.0317 -0.2596 -0.1539
    1W        W45983  18.774   1.914   3.408 -0.1428 -0.2503  0.0703
    1W        W45984   2.651  25.977   0.946 -0.0455  0.1549  0.0087
    1W        W45985  16.420  16.440   8.795  0.0648 -0.2173  0.0305
    1W        W45986  13.816   7.782   2.159 -0.0925  0.2443  0.0813
    1W        W45987  19.774   4.114   1.460  0.2598  0.0203  0.1904
    1W        W45988  19.159   8.569   0.418 -0.0795 -0.1925 -0.0512
    1W        W45989  22.731  27.315   3.192 -0.1885 -0.1091 -0.0001
    1W        W45990  13.304  23.358   0.560  0.1104  0.1041  0.2972
    1W        W45991  24.857  23.008   8.680  0.2442  0.1407 -0.2526
    1W        W45992   4.757   9.869   8.247 -0.0163 -0.0758 -0.0511
    1W        W45993  19.273   0.678   1.013 -0.2791  0.1423 -0.2136
    1W        W45994   8.436  17.251   9.511  0.1212 -0.2587  0.2719
    1W        W45995  19.699  14.403   7.441  0.2464  0.4440  0.0136
    1W        W45996   9.293  13.079   2.039 -0.0412  0.0792  0.1733
    1W        W45997  20.710  12.559   0.163 -0.0308  0.2955  0.2750
    1W        W45998   5.063   0.482   7.586  0.0929 -0.1246 -0.1257
    1W        W45999   4.121  18.818   0.127  0.0885 -0.4139 -0.1299
    1W        W46000  16.277   3.428   8.122 -0.0390 -0.1221  0.1497
    1W        W46001  23.955  24.817   9.336  0.1260  0.0687  0.1356
    1W        W46002  11.673  26.981   2.167 -0.3487 -0.4196 -0.0421
    1W        W46003   5.768   5.407   0.980 -0.2154 -0.0308  0.0846
    1W        W46004  12.446  29.084   1.138  0.1207  0.1733 -0.3015
    1W        W46005  23.105   5.242   9.396  0.1576  0.1809  0.0073
    1W        W46006  15.569  20.873   0.604  0.1060 -0.0754  0.0309
    1W        W46007  26.447   3.657   2.319  0.3910 -0.1132 -0.1279
    1W        W46008  19.900  26.932   6.959 -0.0002 -0.1459 -0.2989
    1W        W46009  26.162   3.705   5.554 -0.0468  0.0463  0.2686
    1W        W46010  17.801  26.436   1.184  0.1005  0.1604 -0.0046
    1W        W46011  16.329  12.592   9.405  0.0734 -0.2090 -0.1740
    1W        W46012  23.053  10.327   8.337 -0.2077 -0.0889  0.2716
    1W        W46013  15.798  20.336   7.643 -0.0206  0.0511 -0.0926
    1W        W46014  23.660  12.208   2.629 -0.3357  0.3389  0.1650
    1W        W46015   2.836  16.974   1.152 -0.1516  0.1530  0.0843
    1W        W46016  27.236  17.753   0.355 -0.0055  0.1193 -0.0610
    1W        W46017   1.733   0.510   0.532  0.0206 -0.0599 -0.2816
    1W        W46018  10.119  10.299   1.013  0.0103 -0.2137  0.1951
    1W        W46019  21.190   9.230   2.446  0.4294  0.1627  0.2070
    1W        W46020   5.033  25.435   7.291  0.0096  0.2560 -0.1311
    1W        W46021  27.236  13.662   5.269  0.0572 -0.1799  0.1958
    1W        W46022  20.709  21.209   8.628  0.0804  0.2327  0.3588
    1W        W46023  10.019  22.452   1.728  0.3496  0.0304  0.2180
    1W        W46024  27.530  13.766   8.102  0.0689  0.0752 -0.4250
    1W        W46025   9.903  17.198   7.300  0.0390  0.1073 -0.3404
    1W        W46026  15.022   4.190   9.076  0.0917  0.0409 -0.2385
    1W        W46027  13.485  28.861   1.359 -0.1192 -0.1008  0.1935
    1W        W46028   0.553  17.955   0.191 -0.0909 -0.2090  0.2248
    1W        W46029  11.285  15.338   2.445 -0.3292 -0.0021 -0.0741
    1W        W46030  19.404  19.171   0.799  0.2586 -0.0395  0.0289
    1W        W46031  25.189  26.434   9.255  0.2669 -0.0461 -0.3020
    1W        W46032   1.201  25.458   2.031 -0.0050  0.0152  0.2132
    1W        W46033   8.956   7.254   8.106 -0.0786  0.1025  0.2272
    1W        W46034   2.580  12.011   1.310 -0.1303  0.1949  0.1956
    1W        W46035  28.677  11.745   9.219 -0.0468  0.0423  0.0681
    1W        W46036  16.830  13.395   1.191  0.4290  0.0781 -0.0478
    1W        W46037  20.227  12.740   0.094 -0.1221 -0.2955 -0.1709
    1W        W46038   8.719  25.971   7.834  0.0939  0.0118  0.0351
    1W        W46039  19.964  24.897   0.217 -0.0562  0.0307  0.0247
    1W        W46040  21.365  20.867   3.018 -0.1853 -0.2828 -0.0411
    1W        W46041   0.983  25.034   8.985 -0.0980 -0.0224  0.0797
    1W        W46042   1.167  18.386   2.259 -0.2026 -0.0462  0.0456
    1W        W46043  25.495   7.540   1.604  0.0257 -0.2302 -0.0316
    1W        W46044   8.845   5.167   0.476 -0.3036 -0.2828 -0.0818
    1W        W46045   4.733   0.545   3.762  0.3331  0.1294 -0.0338
    1W        W46046   4.812  18.752   7.825 -0.1736  0.1751  0.0049
    1W        W46047   1.287  24.860   8.646  0.0806 -0.2445 -0.1173
    1W        W46048  23.299   3.195   2.497  0.4632  0.2994  0.0763
    1W        W46049  25.923  11.559   7.164  0.1466  0.0987  0.1150
    1W        W46050  16.343  27.818   1.154  0.1030 -0.1985 -0.0823
    1W        W46051  22.301  21.943   2.344  0.1829  0.2745  0.0091
    1W        W46052  12.916  12.188   2.498  0.4138 -0.0658 -0.2491
    1W        W46053  27.949  13.686   9.580 -0.0998  0.4127 -0.0149
    1W        W46054   9.469  14.469   7.930  0.1339  0.2213  0.0408
    1W        W46055  23.736   7.320   7.409  0.0349 -0.1434  0.1229
    1W        W46056  24.789  20.357   1.369  0.1335 -0.0695  0.1263
    1W        W46057  20.799   7.345   1.578  0.1400  0.0737  0.0222
    1W        W46058  18.731   7.742   8.704  0.0061  0.2329  0.1996
    1W        W46059   3.382  28.815   3.032  0.0121 -0.1186 -0.0794
    1W        W46060   9.065   0.746   7.490 -0.2104 -0.1210 -0.1279
    1W        W46061   7.803  28.421   7.789  0.4446  0.1110 -0.1853
    1W        W46062   2.702  17.597   0.944  0.2675  0.2664 -0.0186
    1W        W46063  17.681   5.851   8.907  0.1841 -0.1239  0.1673
    1W        W46064   3.882  28.891   9.684  0.0473 -0.0288  0.4017
    1W        W46065  13.017  18.440   7.568 -0.1109  0.0043  0.0752
    1W        W46066  17.712  29.066   1.957 -0.0139  0.1083 -0.0609
    1W        W46067   8.053   3.173   9.063 -0.1161  0.1483  0.2596
    1W        W46068  24.919  28.264   7.282 -0.0577 -0.1544 -0.0686
    1W        W46069  21.547   1.914   2.410  0.1630  0.1190 -0.1007
    1W        W46070  11.222  19.565   6.983  0.1581 -0.0184 -0.0037
    1W        W46071  17.587   8.201   9.637 -0.4408  0.0294  0.0819
    1W        W46072  19.680  26.800   2.332  0.2852 -0.3787 -0.3261
    1W        W46073  19.070  23.639   0.150  0.2337 -0.2819 -0.0361
    1W        W46074  26.140   7.399   9.111  0.1037 -0.5313 -0.0073
    1W        W46075   9.451  22.433   0.411  0.1062  0.0973 -0.2287
    1W        W46076   9.212  22.696   7.382 -0.0745  0.1945 -0.0413
    1W        W46077   8.345   4.222   2.290  0.1613  0.1227 -0.2598
    1W        W46078  20.976  23.765   8.758  0.1354 -0.0964  0.2301
    1W        W46079  12.457   0.163   9.377 -0.0912 -0.0688 -0.0233
    1W        W46080  20.300  19.962   1.645 -0.1337  0.1495 -0.1553
    1W        W46081   3.196   4.818   8.325 -0.2235 -0.2230 -0.0354
    1W        W46082  18.498  27.321   3.545 -0.2701 -0.2274  0.0301
    1W        W46083  23.516   0.435   7.113 -0.0550 -0.0956  0.0826
    1W        W46084  14.977   1.484   9.117  0.1242 -0.0926  0.2504
    1W        W46085  26.703  22.024   3.229 -0.0389 -0.2681 -0.1850
    1W        W46086  23.868  15.737   7.627 -0.0158 -0.0339 -0.0794
    1W        W46087  15.945   5.022   0.764 -0.0057  0.1125 -0.2090
    1W        W46088  12.727   4.419   0.919  0.0289  0.1080 -0.3134
    1W        W46089  28.487  14.748   1.284  0.1187  0.3708  0.1739
    1W        W46090  27.552  18.703   7.340 -0.1788  0.3194 -0.0323
    1W        W46091  26.935   2.220   9.226  0.0604 -0.0098 -0.0388
    1W        W46092  17.599  20.059   0.745 -0.1465 -0.0673 -0.0002
    1W        W46093  11.172   8.225   0.622  0.0901  0.2613  0.0813
    1W        W46094   3.952  16.893   1.751 -0.1572 -0.1511  0.1680
    1W        W46095  21.704   4.769   8.218 -0.1801  0.0681 -0.1075
    1W        W46096   8.239  10.163   0.853  0.3696 -0.2118  0.0057
    1W        W46097  11.287  25.018   0.898 -0.1621  0.1189  0.0956
    1W        W46098  28.698  15.157   0.447  0.1792 -0.1383 -0.2168
    1W        W46099  23.813   3.969   8.277 -0.2826  0.0605  0.1514
    1W        W46100   2.707  13.430   1.681  0.1147 -0.0873 -0.2258
    1W        W46101  22.904  22.446   1.647  0.2197  0.1816  0.1319
    1W        W46102  10.515  10.006   0.849 -0.1779 -0.1747  0.3646
    1W        W46103  27.451  28.541   8.252 -0.3645  0.0970  0.0688
    1W        W46104   0.562  21.547   8.662 -0.0654 -0.2970 -0.3298
    1W        W46105  27.632   7.993   9.434  0.2376  0.1241  0.1348
    1W        W46106  11.915  10.733   7.785  0.3556 -0.1724 -0.3417
    1W        W46107  10.913  29.046   1.782 -0.1080 -0.0431 -0.0309
    1W        W46108  11.525   5.193   9.510 -0.2256  0.0185 -0.0322
    1W        W46109   9.333  11.460   8.063  0.0680  0.1431 -0.1120
    1W        W46110  21.362   2.971   8.663  0.0175 -0.1451 -0.2720
    1W        W46111   6.478  28.312   1.022  0.0936  0.1351  0.2045
    1W        W46112  28.142   0.640   7.114 -0.0725  0.1973 -0.0780
    1W        W46113  10.615  23.138   9.112 -0.0699 -0.0775  0.0027
    1W        W46114  11.802  27.221   7.381  0.1522  0.4244 -0.0202
    1W        W46115  14.971  25.087   1.805 -0.0918  0.2229 -0.1520
    1W        W46116  18.185  16.530   2.284 -0.0943 -0.3074  0.1803
    1W        W46117  17.334   3.211   1.533  0.1029  0.0825  0.0506
    1W        W46118  27.176  17.932   2.297  0.1827 -0.1520 -0.0813
    1W        W46119   1.987  19.998   2.512 -0.0582  0.2566  0.2053
    1W        W46120  29.303   7.760   2.253  0.0493 -0.1113  0.0259
    1W        W46121  12.383   3.075   1.007  0.2659 -0.4051 -0.1971
    1W        W46122  24.913   0.740   1.336 -0.0352 -0.2462  0.0197
    1W        W46123  19.893  21.912   8.497 -0.0410 -0.5150  0.2113
    1W        W46124  23.279  26.464   8.296  0.2696  0.2433 -0.3910
    1W        W46125  26.909  11.189   1.112 -0.1410 -0.0626  0.0913
    1W        W46126   9.014   5.009   9.117 -0.2034  0.0953 -0.0205
    1W        W46127  16.972   9.653   7.812 -0.0649  0.3443 -0.0570
    1W        W46128   5.518  11.743   9.297 -0.0003 -0.0365  0.0373
    1W        W46129  10.370  14.170   8.311 -0.1831  0.0462  0.0341
    1W        W46130   8.908  28.343   3.962  0.0886 -0.0198 -0.1017
    1W        W46131  25.887   0.728   7.498 -0.1093 -0.1646 -0.1949
    1W        W46132  16.840   7.630   1.944 -0.1718 -0.3041 -0.3186
    1W        W46133   8.169   2.387   0.044 -0.0097  0.2332 -0.1871
    1W        W46134   0.407   4.250   9.255  0.1085  0.0415 -0.0137
    1W        W46135  16.425  26.389   2.199 -0.2024  0.1071 -0.1760
    1W        W46136  20.216  10.829   7.109  0.2394  0.2010  0.1773
    1W        W46137  16.744  15.520   0.564  0.0213  0.0739  0.4673
    1W        W46138   6.266   1.515   0.744  0.1516  0.2323 -0.2798
    1W        W46139   2.949  16.529   0.799  0.2565 -0.3642 -0.1204
    1W        W46140  22.143  22.211   3.430  0.2535 -0.0037  0.1459
    1W        W46141  18.887  29.348   7.440 -0.2088  0.0671  0.1753
    1W        W46142  28.565   8.911   0.131  0.1490  0.1713  0.3404
    1W        W46143   1.728   3.375   1.938  0.5158  0.1328 -0.0791
    1W        W46144  12.581  17.827   0.989 -0.2522 -0.1922  0.0105
    1W        W46145  26.496  27.345   2.383  0.1437 -0.0042 -0.1185
    1W        W46146  11.099  14.160   8.919 -0.0970  0.1473  0.0254
    1W        W46147   6.858  20.690   8.534  0.1136 -0.1021  0.0812
    1W        W46148  21.912   8.512   9.395 -0.0021  0.1765  0.1117
    1W        W46149  12.852  23.607   7.545 -0.2186  0.2706  0.1461
    1W        W46150  12.808  26.862   0.591 -0.1428  0.3077 -0.2413
    1W        W46151  14.133  22.764   0.058  0.1984  0.0952 -0.2589
    1W        W46152  17.193  21.933   7.276 -0.1671  0.1134  0.0697
    1W        W46153  28.426  21.678   8.335  0.0085 -0.0768 -0.3483
    1W        W46154  24.192  20.585   2.191 -0.3314 -0.1555  0.6995
    1W        W46155  28.394  17.853   1.570 -0.1554  0.1034 -0.2149
    1W        W46156  13.548  12.599   7.690 -0.1658  0.0146  0.1985
    1W        W46157  26.467  19.610   2.166  0.2386  0.0522  0.1471
    1W        W46158  13.647  26.113   0.720  0.2315 -0.0019  0.2911
    1W        W46159   2.841  11.452   6.346  0.1971 -0.1646  0.3479
    1W        W46160  14.363  14.320   9.021  0.2200 -0.1026  0.2946
    1W        W46161   5.176  23.877   8.672 -0.2075 -0.2221  0.1835
    1W        W46162  17.861  17.135   8.535 -0.0967  0.0963  0.1149
    1W        W46163  26.652  28.832   1.312  0.3289  0.0135 -0.1354
    1W        W46164   0.941  13.873   8.023  0.0187  0.0899 -0.1621
    1W        W46165  27.359  18.454   1.797 -0.0514  0.2134 -0.0367
    1W        W46166  13.940  10.470   8.550 -0.0402 -0.2784 -0.1096
    1W        W46167  13.734  28.760   7.138  0.0949 -0.2450 -0.1224
    1W        W46168  22.209   1.756   9.663 -0.0869  0.0410 -0.4713
    1W        W46169   0.468  16.723   0.585 -0.3261 -0.0016 -0.1648
    1W        W46170   5.629  19.264   6.265 -0.0335 -0.1048 -0.0698
    1W        W46171  12.152   6.281   3.638  0.2446 -0.0915  0.2703
    1W        W46172  14.544  24.285   0.421  0.0831 -0.0412 -0.0781
    1W        W46173  29.106  18.072   6.458  0.0329  0.0009  0.0703
    1W        W46174  11.565  18.581   7.813 -0.3137 -0.3430 -0.1052
    1W        W46175  10.194  20.800   0.166  0.2341 -0.1739 -0.1443
    1W        W46176  18.883   9.436   8.011 -0.0112  0.0917  0.1908
    1W        W46177  21.217  11.913   2.843 -0.2026  0.1566 -0.1335
    1W        W46178   0.918   7.737   0.206  0.1236  0.2318 -0.0028
    1W        W46179   2.761  20.021   0.295  0.1344 -0.0597 -0.1563
    1W        W46180  24.261   6.351   2.005 -0.5056 -0.3022 -0.0560
    1W        W46181  17.173   7.010   8.517  0.1858  0.1771 -0.1095
    1W        W46182  21.403  23.986   8.456  0.0343  0.0348  0.0294
    1W        W46183  20.406  13.562   7.280 -0.2245 -0.1923  0.2686
    1W        W46184  19.075  20.936   8.530  0.1073 -0.0503 -0.0911
    1W        W46185   3.719   9.564   2.687  0.1610  0.0318 -0.0709
    1W        W46186  17.961   2.586   2.433 -0.1804 -0.1187  0.0827
    1W        W46187   0.030  23.849   6.744 -0.5645  0.2035 -0.0141
    1W        W46188   3.839   1.391   1.054  0.0743 -0.1569 -0.0126
    1W        W46189  22.399   5.180   0.098  0.0907 -0.1713 -0.1199
    1W        W46190   0.504   9.119   2.293  0.5632 -0.3774  0.0622
    1W        W46191  19.119  12.017   7.256  0.0361  0.0759  0.0256
    1W        W46192  24.845   5.879   7.635  0.3185 -0.3615 -0.0361
    1W        W46193   9.545  22.151   8.884 -0.0356  0.1394 -0.4616
    1W        W46194  11.964   4.612   6.981 -0.0598  0.0619 -0.1321
    1W        W46195   8.086  18.322   7.128  0.0399 -0.1623  0.0945
    1W        W46196  10.404  26.264   2.481 -0.2265  0.3789  0.1549
    1W        W46197  21.351  26.746   2.135  0.3694 -0.2662  0.0147
    1W        W46198  11.814  24.796   8.796 -0.2277  0.0961 -0.3486
    1W        W46199  23.085  22.365   8.086 -0.1309 -0.0505  0.0732
    1W        W46200  15.719  27.532   8.413  0.0585 -0.2959  0.0426
    1W        W46201  17.940  18.259   7.978  0.2435  0.0924 -0.1919
    1W        W46202   2.882  10.631   1.059 -0.0218 -0.0483  0.1971
    1W        W46203  24.946   9.398   9.109 -0.1923 -0.0747  0.1110
    1W        W46204  26.275  15.674   0.825  0.2614 -0.1550  0.1087
    1W        W46205  28.082  23.230   7.715 -0.2838  0.3006  0.0859
    1W        W46206  13.939  23.503   2.365 -0.0523  0.1085 -0.0706
    1W        W46207  19.634   7.701   8.852 -0.2226  0.1147  0.0904
    1W        W46208   9.071   9.564   8.939 -0.1223 -0.2214 -0.0972
    1W        W46209  11.997  10.072   7.033  0.0824  0.0534  0.1185
    1W        W46210  25.028  27.572   8.138  0.0370 -0.0619 -0.3640
    1W        W46211   3.897  22.057   0.657 -0.0007 -0.1086 -0.1508
    1W        W46212  27.589  15.721   0.500  0.1586  0.0564 -0.0616
    1W        W46213   5.418  10.801   7.727 -0.1150 -0.0707  0.1368
    1W        W46214  21.869  23.631   1.005 -0.2097  0.0109  0.2935
    1W        W46215  27.870  26.922   7.775 -0.2842  0.2195 -0.0431
    1W        W46216   6.164   4.085   9.374 -0.0143  0.0066 -0.3443
    1W        W46217  23.159   4.402   5.969 -0.1697 -0.2899 -0.1746
    1W        W46218   2.695  24.226   5.958  0.1442 -0.0505  0.1659
    1W        W46219  14.464  17.323   1.943  0.0428 -0.0357 -0.2512
    1W        W46220  27.030  12.574   7.951  0.1545  0.0569  0.0749
    1W        W46221  18.036  13.362   0.619 -0.1946 -0.2391 -0.1370
    1W        W46222  10.705   6.700   0.269 -0.1616  0.0756  0.0995
    1W        W46223   3.425   1.097   0.929  0.1220 -0.1488 -0.1797
    1W        W46224  25.619  23.869   1.236 -0.0402 -0.1729  0.1218
    1W        W46225   8.972  28.610   0.735  0.0937  0.1226 -0.0760
    1W        W46226  27.615  15.598   7.482 -0.0530 -0.2857  0.2781
    1W        W46227  21.740  17.405   9.610  0.2566  0.0314 -0.0390
    1W        W46228  27.005  16.991   8.246  0.1799  0.1345 -0.1600
    1W        W46229   8.413  17.416   7.505  0.6209  0.0977 -0.3764
    1W        W46230  19.133   5.973   3.184  0.0451 -0.0867 -0.1849
    1W        W46231   9.261  13.586   0.141  0.1100 -0.0053  0.2703
    1W        W46232   3.732   1.252   2.606  0.1305 -0.1303 -0.1493
    1W        W46233  12.785   2.876   8.765 -0.6340  0.1208  0.0691
    1W        W46234   2.921   8.626   1.005  0.1784  0.1777  0.1584
    1W        W46235  15.760  25.053   2.010 -0.2261 -0.3554  0.1910
    1W        W46236  10.958  23.416   2.367 -0.3603  0.0650  0.1823
    1W        W46237  27.735  27.365   9.434  0.2823  0.2243 -0.1289
    1W        W46238   6.205  20.584   1.056  0.0682  0.1922 -0.1812
    1W        W46239  22.478  28.590   9.130  0.2582 -0.3408 -0.0067
    1W        W46240   7.703  17.842   8.592  0.1858 -0.1645 -0.1349
    1W        W46241   9.919   4.133   2.053  0.0496  0.0451 -0.0641
    1W        W46242  12.671   9.343   8.428  0.0214 -0.1919 -0.0789
    1W        W46243   7.728  17.500   2.471  0.3744 -0.2401 -0.0123
    1W        W46244  15.895  10.826   9.483 -0.1503  0.0733 -0.3694
    1W        W46245  19.375   4.419   8.844 -0.0445 -0.2271 -0.0797
    1W        W46246  13.051  19.858   8.652  0.0062  0.2007 -0.0237
    1W        W46247   1.770  20.600   0.957  0.2454 -0.0155  0.0311
    1W        W46248   4.762  20.009   6.952  0.0151  0.2471 -0.0136
    1W        W46249  14.862  10.495   2.855  0.0583 -0.1803 -0.0514
    1W        W46250  23.578  26.549   0.203  0.1347 -0.1747 -0.2082
    1W        W46251  23.865  15.131   0.471  0.0405  0.0882 -0.1898
    1W        W46252  11.363   5.470   0.227  0.2818 -0.0470 -0.2694
    1W        W46253  13.162  17.022   0.219 -0.0790  0.0484  0.3393
    1W        W46254  16.421  22.919   3.003 -0.2411  0.1866  0.0558
    1W        W46255  22.449   6.025   8.546 -0.1304  0.0343  0.0399
    1W        W46256  11.211   0.878   3.212 -0.0585 -0.0511 -0.1095
    1W        W46257  10.295  28.545   7.694  0.2229  0.0208 -0.1603
    1W        W46258  16.434   4.727   1.371  0.0547  0.1054  0.1319
    1W        W46259  20.533   8.209   9.013  0.0552 -0.0260  0.1221
    1W        W46260  22.329  19.022   9.347 -0.0016  0.3528 -0.0126
    1W        W46261   7.074  19.250   1.105 -0.0030  0.3138 -0.1907
    1W        W46262  23.804  12.618   6.296  0.1038 -0.1293 -0.0578
    1W        W46263  29.026   2.929   9.329 -0.0021  0.0514 -0.0683
    1W        W46264  16.175  26.079   2.501  0.3808 -0.0049  0.0020
    1W        W46265  23.058  14.189   8.836 -0.2107  0.1449  0.0231
    1W        W46266   4.193   8.151   0.534 -0.6038 -0.1701  0.1336
    1W        W46267  26.388  24.678   6.925 -0.1611  0.2509  0.2066
    1W        W46268  19.755  25.983   9.472  0.0894 -0.0263  0.0844
    1W        W46269  21.584   6.520   7.587 -0.1328 -0.1515  0.2072
    1W        W46270   1.612  18.376   6.481 -0.2023 -0.0823  0.1483
    1W        W46271  10.262   7.521   0.594  0.2922 -0.2407  0.1415
    1W        W46272  25.622  27.946   1.313  0.2363 -0.2812  0.4427
    1W        W46273   0.606  26.059   2.018 -0.2569  0.1076 -0.1462
    1W        W46274  17.342   4.706   1.457  0.0147 -0.1510 -0.1414
    1W        W46275  14.447  26.769   1.511  0.4452 -0.0431  0.0576
    1W        W46276   8.363  12.270   9.286  0.1281  0.1112  0.0515
    1W        W46277  26.229  28.443   3.414 -0.0008 -0.1905 -0.0475
    1W        W46278  25.307   5.875   1.658 -0.2289 -0.2891  0.1276
    1W        W46279   2.516  13.388   2.190 -0.4083  0.0411 -0.0253
    1W        W46280   9.254  17.621   2.145 -0.2345  0.2984 -0.1681
    1W        W46281  15.294  20.090   1.148  0.3503 -0.1174  0.0408
    1W        W46282  21.800  14.245   2.637 -0.0634 -0.1843  0.0451
    1W        W46283  25.415  10.832   7.333 -0.1555 -0.0034 -0.1692
    1W        W46284  20.681   7.131   9.544 -0.0107  0.1981 -0.1972
    1W        W46285   8.632   9.066   9.658 -0.0671 -0.1124  0.3282
    1W        W46286   5.638  21.354   8.929 -0.0498  0.1204  0.1275
    1W        W46287  17.367  15.123   2.364  0.2374 -0.0631  0.1662
    1W        W46288   0.318  17.750   6.838 -0.2091  0.2468  0.0101
    1W        W46289   1.607  12.737   7.093 -0.0367 -0.0338  0.0982
    1W        W46290  19.778  29.137   2.823 -0.0704 -0.0380  0.2441
    1W        W46291  22.028  27.184   2.832 -0.1298 -0.2434  0.1572
    1W        W46292  25.349  18.876   0.923  0.1950  0.2617 -0.1046
    1W        W46293  18.882  15.110   0.342  0.0122  0.1150  0.6101
    1W        W46294  13.471  26.929   3.684  0.0357 -0.1065 -0.0758
    1W        W46295   0.509   4.654   7.210 -0.1317  0.0745  0.0212
    1W        W46296  18.821  21.595   0.896 -0.0206 -0.0127 -0.0266
    1W        W46297  16.266  14.335   8.893  0.1806  0.2703 -0.1233
    1W        W46298  10.915  10.039   2.830  0.1521  0.0883 -0.1008
    1W        W46299   8.838   8.391   0.134 -0.0908 -0.0478  0.1867
    1W        W46300  10.213   2.042   0.065 -0.0750  0.0341  0.0786
    1W        W46301  11.600  25.944   1.928 -0.0985 -0.0598  0.3127
    1W        W46302   6.739   7.467   2.817  0.3637  0.1720  0.0861
    1W        W46303  13.294  17.063   9.279  0.1607  0.0287  0.2717
    1W        W46304  28.868   5.175   2.063 -0.0366 -0.2936  0.0670
    1W        W46305   7.733  15.689   8.727  0.1361  0.1341 -0.0338
    1W        W46306   3.665  10.532   5.975  0.0788 -0.0901  0.0089
    1W        W46307  25.811  13.756   7.105  0.3872  0.0523 -0.0519
    1W        W46308  18.911  24.313   8.066  0.2178  0.2766 -0.1478
    1W        W46309  26.123  28.936   2.063 -0.0744 -0.3558 -0.0082
    1W        W46310   5.222  27.291   0.635 -0.1298 -0.1237  0.0164
    1W        W46311  24.323  29.297   7.833  0.2757 -0.1326  0.1598
    1W        W46312  28.479   4.901   0.442 -0.2843  0.1018 -0.0137
    1W        W46313   2.642   0.795   2.690 -0.1197  0.1219  0.2929
    1W        W46314   4.961  22.031   8.875  0.0623  0.0973 -0.0729
    1W        W46315  12.425  10.781   8.201 -0.2488  0.1431 -0.1619
    1W        W46316  10.970  18.856   8.506 -0.1307  0.0746 -0.2846
    1W        W46317  19.594  11.566   7.312 -0.0661  0.1755 -0.0137
    1W        W46318  20.244  16.602   0.712 -0.0494 -0.3608 -0.0549
    1W        W46319   5.233  21.897   9.645  0.1252  0.0014 -0.1354
    1W        W46320  20.295   0.529   2.368 -0.0338 -0.1678 -0.0527
    1W        W46321  11.698  20.260   1.389  0.0526 -0.0441  0.1516
    1W        W46322  19.252  28.607   1.072  0.0177  0.1319 -0.2505
    1W        W46323  16.263  20.160   2.073 -0.0264 -0.0135  0.0699
    1W        W46324  14.646   2.811   6.848  0.0867 -0.1590  0.1852
    1W        W46325  19.014  11.703   2.119 -0.1110  0.0385 -0.0277
    1W        W46326   6.074  27.082   1.214 -0.0020  0.2389  0.0199
    1W        W46327  19.656   4.229   6.439 -0.1427  0.1609  0.1332
    1W        W46328  28.029   9.184   7.950  0.1641 -0.2662  0.0602
    1W        W46329   9.685   7.870   9.607 -0.0075  0.1827 -0.0600
    1W        W46330  26.410  25.746   8.295  0.0056  0.0533  0.1031
    1W        W46331  26.652   2.836   7.016 -0.0497 -0.1789 -0.0284
    1W        W46332  10.959   3.307   7.056 -0.1586  0.3722 -0.4558
    1W        W46333   5.770   0.745   2.830  0.0951 -0.0107 -0.1110
    1W        W46334  23.851  14.838   7.721  0.0176 -0.1187  0.1437
    1W        W46335  29.081  16.297   6.580 -0.1578  0.0763 -0.4153
    1W        W46336  21.866  24.324   1.931 -0.1837  0.0702 -0.1091
    1W        W46337  12.030  26.253   1.778  0.2103 -0.0233 -0.0539
    1W        W46338   4.955  23.315   8.747  0.3824  0.0453  0.1371
    1W        W46339  26.210  22.749   8.498  0.0552 -0.0643 -0.0708
    1W        W46340   3.437  12.645   1.272 -0.1178  0.0492 -0.1030
    1W        W46341   9.415   2.600   8.013 -0.3267  0.0851  0.0079
    1W        W46342  22.845   4.770   7.229  0.0928  0.1891 -0.0143
    1W        W46343  14.439  26.717   3.284  0.0789  0.0045  0.2099
    1W        W46344  22.811  29.098   8.346  0.1326 -0.0358 -0.1568
    1W        W46345   2.274  28.796   2.130  0.2191  0.1741  0.0952
    1W        W46346  18.242   6.992   3.626  0.3431  0.0915 -0.2286
    1W        W46347  24.030  17.666   7.319  0.1766 -0.1410 -0.3463
    1W        W46348  14.403   7.545   2.673 -0.0164 -0.3196 -0.0815
    1W        W46349  18.634  24.630   1.638 -0.0266 -0.1326 -0.0832
    1W        W46350  26.026  26.068   9.062  0.1675 -0.2271 -0.3910
    1W        W46351   4.412   7.914   1.555  0.1517 -0.0475  0.2568
    1W        W46352  22.893  28.467   0.039 -0.1163 -0.0595  0.1276
    1W        W46353  23.965  13.843   1.715  0.0104  0.1357  0.2284
    1W        W46354   3.318   8.983   8.836 -0.0781 -0.0488 -0.1916
    1W        W46355  29.169  21.253   7.683  0.0400  0.1207 -0.1062
    1W        W46356  18.359  20.470   8.256  0.0531  0.1418 -0.1337
    1W        W46357  11.577  21.260   2.115  0.1764  0.1145  0.3435
    1W        W46358  25.896   3.087   2.139  0.1502  0.1480 -0.1786
    1W        W46359  14.843  19.886   1.994 -0.1104  0.0439  0.1656
    1W        W46360   2.622  24.563   7.644  0.1931 -0.0243  0.0224
    1W        W46361   7.839   8.082   7.109  0.1300 -0.3776  0.3031
    1W        W46362  19.922  25.754   3.030  0.0241 -0.2466 -0.0953
    1W        W46363  12.572  28.221   3.512 -0.2008 -0.2019  0.0370
    1W        W46364  10.678  15.383   7.767 -0.1748  0.0655  0.0577
    1W        W46365  18.966   6.127   0.440 -0.0699  0.2147  0.1602
    1W        W46366   3.827  10.402   8.332 -0.1516 -0.2648 -0.0536
    1W        W46367  20.720  22.330   7.260 -0.1417  0.1055 -0.2133
    1W        W46368  21.905   6.174   7.338  0.1571 -0.2003 -0.0406
    1W        W46369   9.882   5.498   8.085 -0.1223 -0.1629  0.3944
    1W        W46370   7.289   7.745   7.785 -0.1675 -0.1537  0.2820
    1W        W46371   4.923  13.794   0.079 -0.0504  0.0391  0.1238
    1W        W46372  14.079  12.968   2.269  0.0978  0.0217  0.1442
    1W        W46373  16.370   7.395   1.908  0.2696 -0.1194 -0.2252
    1W        W46374   5.324  24.647   1.921  0.1054  0.1138 -0.3506
    1W        W46375   0.558   0.093   9.428 -0.4475  0.0482  0.2148
    1W        W46376   5.216   8.598   6.838 -0.0340 -0.2415  0.1823
    1W        W46377   9.722  23.429   7.361  0.1138  0.1385 -0.3350
    1W        W46378   5.663  25.682   6.693 -0.4250  0.0357  0.0071
    1W        W46379  18.877   1.757   7.693  0.0522 -0.2034 -0.1099
    1W        W46380  23.912   5.719   8.705 -0.3108  0.0839  0.3361
    1W        W46381  21.025  12.502   1.245 -0.2448 -0.0933 -0.0927
    1W        W46382  18.820  24.552   7.250 -0.1004 -0.0217  0.0165
    1W        W46383   9.201  13.693   1.102  0.2135 -0.0088  0.0961
    1W        W46384  26.576  10.767   8.594 -0.1125  0.0601 -0.1206
    1W        W46385  21.074  28.870   6.587 -0.4145  0.0616  0.0132
    1W        W46386   8.626   2.518   9.345  0.1015  0.1087  0.3088
    1W        W46387  27.924  18.475   1.347  0.2234  0.5201 -0.0492
    1W        W46388   2.014  13.397   3.052 -0.1010 -0.1281  0.2090
    1W        W46389   0.064  21.784   8.591  0.0623 -0.1559 -0.3775
    1W        W46390   5.742  11.572   8.325 -0.2184 -0.3238 -0.0224
    1W        W46391  11.846   5.306   0.257  0.1740  0.0737 -0.0420
    1W        W46392   1.172  26.211   1.354 -0.0439 -0.0265 -0.3457
    1W        W46393  15.087  24.507   2.362 -0.0403 -0.3199 -0.0335
    1W        W46394  23.145  22.336   3.071 -0.0397 -0.0308 -0.2518
    1W        W46395  24.231  12.412   8.123 -0.0651 -0.0682 -0.2013
    1W        W46396   3.594  15.684   6.740 -0.0104 -0.1333  0.0288
    1W        W46397  21.269  20.806   2.352 -0.1444 -0.0064  0.1160
    1W        W46398  11.664   2.360   2.549  0.1947 -0.2153  0.3183
    1W        W46399  12.525  17.826   1.467 -0.1481 -0.0342 -0.0041
    1W        W46400   3.033  12.310   1.343 -0.0094 -0.0516 -0.1906
    1W        W46401  17.127  20.369   2.529  0.0037 -0.1057  0.1853
    1W        W46402  28.588   9.835   1.288 -0.0660  0.2464  0.1201
    1W        W46403  22.079  28.346   7.058  0.1109  0.0059 -0.3187
    1W        W46404  17.183   1.064   1.007  0.0064  0.0730 -0.2158
    1W        W46405  27.301  19.794   8.871 -0.2123  0.0189 -0.0095
    1W        W46406   5.454  19.611   7.769 -0.0658  0.0115  0.2401
    1W        W46407  19.529  16.874   1.146 -0.0734 -0.1887 -0.2038
    1W        W46408  13.291  26.598   9.633 -0.2233  0.0946 -0.0692
    1W        W46409   0.660   5.887   6.175  0.1361 -0.1741 -0.1379
    1W        W46410  18.297  27.229   0.720  0.4684  0.0210  0.1749
    1W        W46411   3.612  29.244   0.805  0.0476 -0.3022 -0.0361
    1W        W46412  15.211  14.194   9.504  0.1514  0.0107  0.0291
    1W        W46413  29.059  17.377   7.509  0.2089 -0.0981  0.1852
    1W        W46414   3.653  12.660   9.366  0.2825  0.0692 -0.4440
    1W        W46415   8.736   3.139   3.289  0.3127 -0.0924 -0.0870
    1W        W46416  27.272  24.470   0.949  0.2234 -0.2264 -0.1306
    1W        W46417   9.303  27.701   9.002 -0.0676  0.0493  0.1881
    1W        W46418  14.635   9.227   8.676 -0.0440  0.0404 -0.2663
    1W        W46419  28.780   0.971   3.055  0.1284  0.2420  0.4704
    1W        W46420  14.984   7.844   0.671  0.1540  0.1141 -0.0935
    1W        W46421   4.218  29.070   0.614  0.3645  0.3589 -0.0548
    1W        W46422  10.082  23.596   1.979 -0.1374 -0.1053  0.3041
    1W        W46423   3.891   1.390   6.734  0.1623 -0.1141 -0.0110
    1W        W46424   1.194  25.625   2.907  0.3351 -0.1239 -0.0545
    1W        W46425  14.753  26.409   0.825  0.0620  0.3227 -0.1800
    1W        W46426  14.936  19.600   7.542  0.0580 -0.0767 -0.0343
    1W        W46427   9.427  10.632   8.364  0.1411  0.1289  0.0219
    1W        W46428   4.631  17.826   2.139  0.2082 -0.0574  0.0438
    1W        W46429   3.088   2.628   7.206  0.1609  0.4253 -0.3809
    1W        W46430  21.749   6.418   2.631  0.2734 -0.1861  0.1263
    1W        W46431  14.764   9.944   8.252 -0.0614  0.4194 -0.0969
    1W        W46432   4.859   7.424   8.398  0.0874  0.0715  0.0206
    1W        W46433  28.590   6.159   8.207  0.3140 -0.0745 -0.1361
    1W        W46434   8.679  25.096   0.677  0.2981 -0.1594  0.2437
    1W        W46435  16.564  18.831   9.292 -0.1497 -0.0433  0.1143
    1W        W46436   8.644  15.540   2.191  0.0080 -0.1762  0.1611
    1W        W46437   6.126   9.569   1.674 -0.3903 -0.2681 -0.2903
    1W        W46438  22.067  28.801   8.817  0.0544  0.2376  0.2141
    1W        W46439   2.751  24.627   9.501  0.0978  0.2536 -0.0195
    1W        W46440  24.693  27.069   8.103  0.1959  0.1960 -0.0444
    1W        W46441  25.275  12.412   8.877  0.2888  0.1320 -0.2680
    1W        W46442   5.178  17.027   8.647 -0.3942  0.2951  0.2522
    1W        W46443   3.844  16.432   1.730  0.2143 -0.0108  0.3774
    1W        W46444  20.834   2.727   0.146  0.1501 -0.0934  0.1734
    1W        W46445  20.469  19.208   8.372 -0.1672  0.1681 -0.1328
    1W        W46446  27.974  20.545   9.147  0.3704  0.2809 -0.2285
    1W        W46447   2.910  19.633   8.607  0.3454 -0.1673 -0.0637
    1W        W46448  20.367  21.848   0.576 -0.1257  0.0174 -0.2480
    1W        W46449   5.151  10.427   1.789 -0.0229  0.0540 -0.1456
    1W        W46450   0.502   5.571   7.758 -0.1685  0.3276 -0.0621
    1W        W46451  12.066   8.851   0.340 -0.1966  0.0792  0.0596
    1W        W46452  20.857  17.333   8.458 -0.0565  0.0598 -0.1621
    1W        W46453  10.113   3.148   3.535 -0.1446 -0.1545  0.3833
    1W        W46454  14.079   9.796   1.872  0.4114 -0.1829  0.1337
    1W        W46455  19.439  15.971   9.466  0.0499  0.0606 -0.1593
    1W        W46456   9.204   1.475   3.490  0.0509  0.0534 -0.2132
    1W        W46457  23.954   1.226   1.171 -0.0119  0.0675 -0.2176
    1W        W46458  14.834   0.292   0.716 -0.1062 -0.3306  0.1368
    1W        W46459   1.909   2.502   9.101  0.0787  0.0008 -0.3763
    1W        W46460  11.721  20.203   0.183  0.2678 -0.2829  0.0086
    1W        W46461  13.803  11.455   0.580  0.0912  0.0714  0.0053
    1W        W46462  20.555  11.065   6.838 -0.1928  0.2492 -0.3755
    1W        W46463   8.442  28.475   8.412  0.0469 -0.3474 -0.2479
    1W        W46464  21.682  23.036   8.682 -0.0085 -0.1091  0.0056
    1W        W46465  22.017   7.804   1.691  0.1913  0.3129  0.1347
    1W        W46466   1.090  17.172   7.537 -0.0448  0.2998 -0.1453
    1W        W46467  18.103  16.971   1.355 -0.2638  0.1546  0.2711
    1W        W46468  27.123  13.031   0.979  0.0092 -0.0831  0.1052
    1W        W46469  14.851   8.748   1.474 -0.4396  0.0956  0.2201
    1W        W46470  25.938  15.741   8.751  0.3319 -0.0073 -0.0960
    1W        W46471   4.905   2.767   0.805  0.0765 -0.0306  0.0799
    1W        W46472   0.780   1.436   1.786  0.2928 -0.2570 -0.2382
    1W        W46473  27.113   2.373   9.679  0.2420 -0.2099 -0.1745
    1W        W46474   7.876  16.718   6.240 -0.1701 -0.1344  0.0865
    1W        W46475  16.585   2.282   0.290  0.0139 -0.1844  0.0067
    1W        W46476  25.707  28.732   1.159  0.0951  0.0156  0.1298
    1W        W46477  29.140   0.352   1.200  0.0839 -0.1211  0.2321
    1W        W46478   7.377  22.854   1.785 -0.3019  0.0565 -0.0996
    1W        W46479  16.307  17.486   0.410 -0.0324 -0.0185 -0.1272
    1W        W46480  20.880  11.895   1.342 -0.0003 -0.0563 -0.1992
    1W        W46481   1.217   5.853   8.924  0.0097  0.1248 -0.1205
    1W        W46482  26.469  25.246   1.425 -0.1961 -0.1911  0.1023
    1W        W46483  24.457  12.382   7.620 -0.0320 -0.0435  0.0564
    1W        W46484   0.200   0.286   2.316 -0.0216  0.0339  0.3007
    1W        W46485  23.953  28.432   7.940  0.2410  0.0783 -0.0499
    1W        W46486  18.778   5.628   1.147  0.0819  0.0889  0.0682
    1W        W46487  14.565  11.516   7.645 -0.0644 -0.1046 -0.0254
    1W        W46488  10.582   2.016   1.081 -0.0573 -0.0672 -0.2105
    1W        W46489  25.363  13.207   8.445 -0.1170  0.2799  0.0665
    1W        W46490  12.509   7.392   2.629 -0.3775  0.1251 -0.0643
    1W        W46491  16.581  22.842   7.589  0.0252 -0.1330 -0.0579
    1W        W46492  23.842   5.780   0.893  0.1842 -0.0130 -0.0337
    1W        W46493  10.090  23.103   7.561  0.0240  0.2173 -0.1471
    1W        W46494  20.576  22.466   0.707  0.2244 -0.0305  0.0974
    1W        W46495  21.586  29.297   8.099 -0.2676 -0.1681  0.0920
    1W        W46496   6.606  13.925   9.387  0.0244  0.1785  0.1307
    1W        W46497   9.039   7.798   7.431 -0.0794 -0.0837  0.1735
    1W        W46498  15.890   7.777   2.709  0.0336 -0.1533 -0.2762
    1W        W46499   5.769  17.670   6.342  0.2161  0.0414  0.0689
    1W        W46500  29.075  16.620   8.826 -0.0764 -0.0515 -0.0722
    1W        W46501   6.725  21.895   7.885 -0.0835  0.0405 -0.0244
    1W        W46502   4.933  14.204   8.132  0.0712 -0.0619  0.0217
    1W        W46503  19.034   4.977   8.323  0.0787  0.0665  0.0605
    1W        W46504   5.303  15.012   7.740  0.0373  0.1223  0.1482
    1W        W46505  18.072   0.367   1.186  0.2791  0.2099 -0.4084
    1W        W46506   5.801  15.444   1.680  0.1049  0.0655  0.1348
    1W        W46507  15.212   9.174   0.122  0.1567 -0.0549 -0.1220
    1W        W46508  13.268  23.911   7.788  0.2451 -0.1069 -0.1823
    1W        W46509   1.224   2.631   8.171  0.1615 -0.0388 -0.2209
    1W        W46510  20.759  19.781   1.370  0.1522  0.2796  0.1373
    1W        W46511   7.213   0.524   9.559  0.0738 -0.2292 -0.0639
    1W        W46512   1.319  12.379   6.903  0.0456 -0.1514  0.4011
    1W        W46513   0.779  15.808   1.177 -0.0167 -0.1070  0.2888
    1W        W46514   7.982   6.739   1.350 -0.1746  0.0772 -0.2060
    1W        W46515  26.312  12.822   0.505  0.0679  0.1265  0.0037
    1W        W46516   8.512  20.613   7.730  0.0394  0.0277  0.1199
    1W        W46517   8.399   2.929   3.665  0.0744  0.0220  0.0941
    1W        W46518  14.713  13.042   9.082  0.1990 -0.0148 -0.1620
    1W        W46519   7.767   2.106   9.482  0.0785  0.1559 -0.0621
    1W        W46520   5.961  23.980   1.435 -0.1279  0.1520 -0.2399
    1W        W46521   4.021  23.574   1.952 -0.0803 -0.0022 -0.2027
    1W        W46522  22.336  26.431   8.073 -0.1228 -0.0706 -0.2795
    1W        W46523  26.132  18.352   2.030  0.0928 -0.2766 -0.0653
    1W        W46524  10.919  27.185   0.755 -0.0457 -0.1500 -0.1522
    1W        W46525  19.111   5.886   1.539 -0.2205 -0.1630  0.1780
    1W        W46526  21.759   7.235   6.992  0.0843  0.0143 -0.2229
    1W        W46527  16.520   8.632   0.180 -0.1614 -0.0252  0.0077
    1W        W46528  12.740  15.877   1.634  0.3265  0.1502  0.2781
    1W        W46529  21.681  19.858   3.481 -0.1209 -0.3510 -0.5524
    1W        W46530  27.378   4.989   2.010  0.2360  0.2953  0.1737
    1W        W46531   0.588  27.237   8.753  0.0125 -0.1608 -0.0554
    1W        W46532  25.326  14.663   8.591  0.0891 -0.1997  0.0214
    1W        W46533   5.681  25.822   9.575  0.0315  0.1038 -0.3668
    1W        W46534  29.337  23.107   8.058 -0.0995  0.4493  0.0216
    1W        W46535  15.737   2.984   9.486 -0.4069 -0.1307  0.1977
    1W        W46536  19.964  26.554   0.004 -0.0407 -0.4813 -0.0003
    1W        W46537  16.026   8.779   8.702  0.1602  0.1393  0.0961
    1W        W46538  10.838  14.667   9.222 -0.1179  0.1538 -0.0197
    1W        W46539  27.159   1.062   9.458  0.2632 -0.0262 -0.2183
    1W        W46540   5.534   6.110   0.094  0.1551 -0.0113 -0.1678
    1W        W46541  24.975  29.356   1.953  0.1775 -0.3251 -0.0511
    1W        W46542  17.574   5.209   9.369 -0.1536  0.1608  0.1291
    1W        W46543   6.065  28.724   8.819  0.1441 -0.1258  0.2131
    1W        W46544  14.855  12.794   0.060 -0.0385  0.1261  0.0971
    1W        W46545  19.763  22.862   0.893 -0.0599  0.0690 -0.1821
    1W        W46546   3.036   9.642   2.379  0.0994  0.5545  0.2698
    1W        W46547   6.959  27.388   0.027 -0.4861 -0.1224 -0.2734
    1W        W46548  11.051  14.705   8.653 -0.0312  0.1679 -0.2782
    1W        W46549  27.598  10.226   9.034  0.2151  0.1092 -0.1266
    1W        W46550   7.325   5.534   7.012  0.2585 -0.3208 -0.0991
    1W        W46551  10.194   6.461   9.123  0.2307 -0.0816 -0.1644
    1W        W46552   7.061  14.215   2.520  0.0864  0.1865  0.0536
    1W        W46553   0.157   1.888   7.233 -0.0176 -0.2166  0.0350
    1W        W46554  16.821  17.585   9.306  0.0583  0.2178 -0.0853
    1W        W46555  28.931  17.062   8.503 -0.0140  0.2725  0.2301
    1W        W46556  29.351  21.324   6.489  0.0379 -0.2854 -0.1052
    1W        W46557  16.330  18.010   8.686  0.0144  0.1473 -0.3796
    1W        W46558  17.508  20.078   8.557  0.0756  0.0993  0.1617
    1W        W46559  25.480  20.005   1.622 -0.0368  0.0533  0.1487
    1W        W46560   1.589   1.321   8.350  0.0985 -0.2445  0.1752
    1W        W46561  15.485  20.455   8.481  0.2215 -0.4956  0.1074
    1W        W46562   7.012   9.887   8.282  0.2624 -0.1548 -0.0964
    1W        W46563  27.864   0.724   6.233 -0.1222 -0.1762  0.0222
    1W        W46564   4.746  21.874   9.452 -0.0500  0.0696 -0.1615
    1W        W46565  11.055  23.024   8.244  0.2082  0.1428 -0.2972
    1W        W46566  25.223  19.053   0.469 -0.0474 -0.1466  0.2154
    1W        W46567   1.514  20.220   7.761 -0.0154 -0.2097  0.4608
    1W        W46568  20.633  13.210   8.927  0.2604  0.1390 -0.1868
    1W        W46569  22.677   1.499   1.966  0.2124  0.0158 -0.0655
    1W        W46570  24.944  10.134   7.553 -0.0463  0.1579  0.0888
    1W        W46571  27.538  11.735   1.197  0.0071 -0.1163 -0.0083
    1W        W46572  18.702   2.083   2.938 -0.0408  0.0671 -0.5306
    1W        W46573  28.284  26.713   6.997 -0.1429 -0.0817 -0.3238
    1W        W46574  24.429  12.007   7.955  0.1286  0.0207 -0.0258
    1W        W46575  26.090  18.572   3.247 -0.0419  0.4159 -0.2221
    1W        W46576  15.938   2.728   2.036  0.2277  0.0609  0.0159
    1W        W46577   3.507  27.548   1.305  0.1875  0.0368 -0.1959
    1W        W46578  21.502   2.607   0.274 -0.2147  0.1785  0.0330
    1W        W46579   5.734  10.002   0.739  0.0738 -0.0772  0.1149
    1W        W46580  14.297   8.887   1.386 -0.0290 -0.0104 -0.0774
    1W        W46581  27.949  23.497   2.436  0.0691 -0.1813 -0.0762
    1W        W46582   7.850   0.476   1.740 -0.2698 -0.0455 -0.2213
    1W        W46583  22.456  18.309   0.896 -0.0436  0.0797  0.1122
    1W        W46584  28.855  28.439   1.287  0.0051  0.3180 -0.0495
    1W        W46585  22.512  11.348   0.216  0.1817 -0.0851 -0.1799
    1W        W46586  26.217   9.225   2.057 -0.2664  0.0739  0.2047
    1W        W46587   2.855  16.344   7.686  0.0868 -0.1426  0.1944
    1W        W46588  24.662   4.090   7.363  0.0969  0.0136  0.2260
    1W        W46589  20.380  12.398   1.388  0.1018  0.4103  0.1495
    1W        W46590  10.015   4.612   3.222  0.0402  0.2739 -0.0731
    1W        W46591   9.579  13.852   1.957  0.0589  0.0828 -0.1297
    1W        W46592  23.552   8.087   0.050 -0.1236  0.0853  0.1293
    1W        W46593  15.806  19.245   1.129  0.0634  0.2705 -0.0128
    1W        W46594   8.204  24.818   9.331  0.0460 -0.0063  0.0686
    1W        W46595  28.659  24.411   1.750 -0.1511  0.0984  0.1627
    1W        W46596   1.590   4.964   9.197  0.0447 -0.5374 -0.2711
    1W        W46597   8.673  27.537   1.015 -0.2207  0.3701 -0.2520
    1W        W46598  26.810  18.351   6.065 -0.0536  0.1684 -0.0517
    1W        W46599   4.339  26.981   9.612 -0.2234  0.1683  0.2832
    1W        W46600   2.054   2.451   3.494  0.0386 -0.0335 -0.0518
    1W        W46601  13.598   7.091   2.553 -0.1951 -0.3891  0.0969
    1W        W46602   0.865   4.772   2.230 -0.0885  0.4412  0.2187
    1W        W46603  13.106   4.891   0.283 -0.0304  0.0769 -0.0343
    1W        W46604  18.205  18.747   8.673  0.0041 -0.5572  0.2942
    1W        W46605   1.971  26.337   1.426  0.1075  0.0029  0.2923
    1W        W46606  12.001   2.654   2.307  0.0916  0.2714  0.1240
    1W        W46607  18.605  16.973   9.582  0.0897  0.3534  0.0307
    1W        W46608  25.210  16.503   0.788  0.2222 -0.1201 -0.3022
    1W        W46609  21.600  12.524   1.830  0.0604  0.0775 -0.1905
    1W        W46610  20.533   5.985   9.019 -0.2636  0.4296 -0.0571
    1W        W46611  18.809   4.623   7.389 -0.2745 -0.3658  0.1002
    1W        W46612  14.226   7.615   9.578  0.1746 -0.0656 -0.2267
    1W        W46613  11.904   8.496   1.056 -0.1800 -0.0280 -0.4465
    1W        W46614   2.024   9.893   2.732 -0.1387  0.0660  0.0434
    1W        W46615  12.390   4.622   3.720 -0.0180 -0.1513 -0.0808
    1W        W46616  18.297   1.708   3.449  0.0601  0.0418  0.2093
    1W        W46617   9.534   5.151   0.491  0.0127 -0.0108 -0.1080
    1W        W46618  27.874  18.679   0.605 -0.1366 -0.1352 -0.0098
    1W        W46619  16.042  22.884   0.904 -0.0660  0.1371  0.0735
    1W        W46620  22.689  17.600   2.658 -0.4008 -0.1480  0.0320
    1W        W46621  12.517   1.063   8.997 -0.2010  0.0315  0.0812
    1W        W46622   3.197  25.595   2.698 -0.1303 -0.1329 -0.0058
    1W        W46623  21.987   3.295   8.099 -0.3524 -0.0358  0.0967
    1W        W46624  29.020   7.876   9.055  0.0855  0.1203  0.0962
    1W        W46625  16.198  28.006   2.123  0.1200 -0.0005  0.1761
    1W        W46626  26.441  21.192   2.655  0.0476  0.2332 -0.1318
    1W        W46627  22.580  10.636   7.363  0.1157 -0.2072 -0.3214
    1W        W46628   8.293  25.818   7.398  0.0956  0.1066  0.0739
    1W        W46629  27.644  24.745   7.365 -0.3009 -0.0075  0.4371
    1W        W46630   7.591   4.508   8.187  0.1958 -0.1192 -0.0019
    1W        W46631  20.579  17.899   7.646 -0.0170 -0.1283  0.0138
    1W        W46632  20.438  10.524   2.455  0.1584 -0.0599  0.0444
    1W        W46633  22.515   1.125   9.648  0.2633  0.0550  0.0676
    1W        W46634   9.354  15.606   8.690  0.2674 -0.1527 -0.0778
    1W        W46635   5.745   4.780   9.263  0.1337  0.2103 -0.0582
    1W        W46636  19.789  15.485   1.912  0.0038  0.1137 -0.0372
    1W        W46637  26.823  29.144   0.896  0.0176 -0.0259 -0.3091
    1W        W46638  27.584   4.810   5.949 -0.1727  0.3171  0.0975
    1W        W46639  24.462   8.810   7.372  0.2799 -0.1896 -0.0825
    1W        W46640  29.186  14.737   8.710  0.1479  0.1661 -0.0889
    1W        W46641   7.264  18.280   1.137  0.1218  0.2706 -0.2948
    1W        W46642   7.670  14.370   2.011 -0.0796  0.0446  0.2449
    1W        W46643  22.244  28.840   0.834  0.1194 -0.3094 -0.0411
    1W        W46644   8.053  26.395   8.375  0.2057  0.5760  0.1748
    1W        W46645   2.079  12.965   7.787 -0.2698 -0.1867  0.1381
    1W        W46646  19.059  17.634   7.881 -0.0612 -0.3663 -0.2248
    1W        W46647  29.230   5.021   1.747  0.2736 -0.5293 -0.4965
    1W        W46648  12.361  12.614   2.359  0.2361  0.1048  0.3794
    1W        W46649   4.506  16.987   2.374 -0.0900  0.3092  0.1760
    1W        W46650   7.972   9.425   7.800 -0.1036 -0.0609 -0.1445
    1W        W46651   2.573  16.144   1.356 -0.0693  0.0367  0.0211
    1W        W46652   2.651  27.678   0.786 -0.0560 -0.1848  0.0346
    1W        W46653  10.978   9.424   0.023  0.0268  0.1200  0.0670
    1W        W46654  23.536   3.655   0.065  0.2611  0.5654 -0.1746
    1W        W46655   2.195  23.198   9.440 -0.0449  0.1336 -0.1458
    1W        W46656   2.660   1.964   6.853  0.1862 -0.2096 -0.0532
    1W        W46657  12.728  11.174   7.930 -0.0914 -0.4606  0.0487
    1W        W46658  25.724  17.418   7.896  0.2562 -0.1358  0.0126
    1W        W46659  12.316   6.725   1.866  0.1598 -0.1032  0.1796
    1W        W46660   1.838  22.118   0.870 -0.2798  0.4073 -0.1599
    1W        W46661   5.887  20.793   1.969  0.0354  0.1445  0.1405
    1W        W46662   1.786  21.493   2.527 -0.0437 -0.1000 -0.1678
    1W        W46663   0.487  22.962   9.326  0.1301  0.1456 -0.1306
    1W        W46664   6.882  18.660   6.468 -0.0086 -0.0328 -0.0743
    1W        W46665  22.585  25.319   0.637  0.2906 -0.0726  0.0088
    1W        W46666  25.135  27.741   1.479 -0.2163  0.2117  0.0551
    1W        W46667  23.602  22.333   6.813  0.2197  0.0886 -0.0886
    1W        W46668  19.847  20.353   8.593 -0.0149 -0.0845 -0.1120
    1W        W46669   3.304   6.818   0.931  0.2608  0.1778  0.1477
    1W        W46670  19.484  28.774   3.673 -0.0661 -0.2290 -0.1101
    1W        W46671  28.848  17.506   9.326 -0.2707  0.1679 -0.1077
    1W        W46672   5.243  15.374   0.749  0.2709 -0.0107 -0.2315
    1W        W46673  23.154  11.965   0.037  0.3489  0.0370  0.4125
    1W        W46674  25.879  26.528   3.768  0.0098 -0.1353 -0.1142
    1W        W46675  27.562  24.892   2.941 -0.0745  0.0505 -0.0237
    1W        W46676  19.255  12.192   0.785 -0.2041  0.0114 -0.0660
    1W        W46677   5.843  13.783   3.165 -0.0934 -0.0559 -0.0793
    1W        W46678   1.156   3.208   9.251 -0.1935 -0.0586 -0.1747
    1W        W46679  28.420  21.864   7.371  0.0247  0.0420 -0.0768
    1W        W46680   8.247  27.829   0.105 -0.1521 -0.2276 -0.1584
    1W        W46681  17.052  27.663   8.350 -0.2007  0.2661  0.0732
    1W        W46682  16.741   2.153   8.702  0.1176 -0.0715  0.0430
    1W        W46683  25.075  16.570   8.158  0.2051  0.1342  0.1713
    1W        W46684  12.120  17.911   1.224 -0.2367  0.2345 -0.1487
    1W        W46685  23.106  14.239   1.194  0.0213  0.3345 -0.0445
    1W        W46686   5.652  15.634   8.842 -0.0577 -0.0983 -0.1547
    1W        W46687  27.907  13.532   1.471  0.0201  0.1788  0.1329
    1W        W46688  18.051  24.321   9.232 -0.2367 -0.1785  0.0913
    1W        W46689   7.146  17.617   7.130  0.1519 -0.0232  0.2657
    1W        W46690  29.027   8.936   1.952  0.0475  0.0657  0.1702
    1W        W46691   1.021  27.725   0.270  0.4976 -0.3138  0.1191
    1W        W46692   2.683   0.744   0.295  0.1632 -0.0158 -0.0764
    1W        W46693  27.133   0.127   2.419  0.2521 -0.1491 -0.0054
    1W        W46694  20.849  24.933   7.598  0.0310 -0.2918 -0.0607
    1W        W46695  16.444  11.638   1.771  0.0322  0.2390 -0.1292
    1W        W46696  27.502   3.205   8.230 -0.2737 -0.0234  0.2778
    1W        W46697  29.003  19.325   8.693 -0.1157 -0.0543  0.3100
    1W        W46698   9.585  24.468   8.391 -0.1850 -0.1476  0.1456
    1W        W46699   6.524   1.623   0.316 -0.0931  0.0941 -0.0497
    1W        W46700  26.536  23.589   2.339 -0.5500  0.0946  0.3140
    1W        W46701  25.643   7.120   1.350 -0.0955  0.0309  0.0706
    1W        W46702  22.322  12.083   7.759 -0.1478  0.0106 -0.4790
    1W        W46703  19.111  24.819   0.424 -0.0629 -0.0837 -0.3437
    1W        W46704   5.519  10.348   0.432  0.0464  0.0515 -0.0911
    1W        W46705  25.387  24.335   3.262 -0.2527  0.0007 -0.2111
    1W        W46706   3.668  18.566   1.480 -0.1654  0.0943  0.0183
    1W        W46707  11.524  12.038   8.763  0.1153  0.1641  0.1332
    1W        W46708  27.078   0.606   2.641  0.0231  0.0617 -0.0311
    1W        W46709  11.162  11.638   8.904 -0.3318  0.1204  0.2080
    1W        W46710  20.876  13.654   7.547 -0.0725  0.1064  0.0819
    1W        W46711  10.130  19.482   9.591  0.2116  0.0150 -0.1821
    1W        W46712  12.173   3.096   3.170  0.2431  0.1003  0.0949
    1W        W46713  23.177  28.312   1.907  0.1247 -0.1860  0.2261
    1W        W46714   5.884  27.972   1.722 -0.3038  0.0779 -0.0262
    1W        W46715  17.115  29.194   7.277 -0.0646 -0.0575  0.1123
    1W        W46716   5.909  27.596   2.639 -0.2179  0.2848 -0.1670
    1W        W46717   1.335  27.663   6.821  0.1507  0.3016  0.0146
    1W        W46718   6.499   7.890   0.841  0.0736  0.3533  0.0950
    1W        W46719   3.270  12.848   2.088  0.2229  0.1492  0.1918
    1W        W46720  18.026  26.968   1.849  0.0767  0.2646 -0.1085
    1W        W46721  26.823  13.384   7.453 -0.0972  0.1645 -0.2585
    1W        W46722  10.135  15.193   7.908  0.1985  0.2309 -0.1540
    1W        W46723  10.723  14.289   0.911  0.1138 -0.0184  0.1229
    1W        W46724   3.860   1.798   2.468 -0.0240  0.1419 -0.1806
    1W        W46725   4.463  22.377   7.433 -0.2710 -0.1765  0.1591
    1W        W46726  17.169   7.239   2.035 -0.1029 -0.1297  0.0383
    1W        W46727  12.761  21.130   7.324 -0.1523  0.1198  0.0055
    1W        W46728  13.449  21.309   9.309 -0.1246 -0.3124  0.1219
    1W        W46729  25.923   2.354   7.064 -0.0014  0.1823  0.0012
    1W        W46730   4.006  14.142   9.322 -0.0527 -0.0979  0.3088
    1W        W46731   5.764   8.144   1.971  0.0712 -0.2128 -0.0022
    1W        W46732  11.165  16.356   1.713  0.2011 -0.2789  0.1782
    1W        W46733  27.559  26.594   7.534 -0.2238 -0.0729 -0.2978
    1W        W46734  23.159  23.748   9.504 -0.0703  0.1668 -0.0401
    1W        W46735  19.707   1.689   2.733 -0.2706 -0.0971 -0.2028
    1W        W46736  11.437   5.375   0.682 -0.0483  0.3210  0.0892
    1W        W46737  17.930   3.439   0.961 -0.0377 -0.0913 -0.2135
    1W        W46738  21.458  16.772   1.352 -0.0625  0.1363  0.0367
    1W        W46739   1.748  11.507   1.567  0.2103 -0.0629 -0.2678
    1W        W46740  16.697   3.421   9.408 -0.1445 -0.0805 -0.0108
    1W        W46741  27.225  14.036   7.769 -0.0853 -0.0532 -0.0746
    1W        W46742  19.635  12.751   0.040  0.1288 -0.1746  0.0319
    1W        W46743  21.272   8.012   9.367 -0.3513 -0.0126  0.1537
    1W        W46744  26.288   6.706   0.306 -0.1320  0.2632 -0.4189
    1W        W46745   4.716   7.522   7.352  0.1880  0.1136 -0.0288
    1W        W46746  29.186  22.600   7.117 -0.2068  0.1816 -0.0456
    1W        W46747   7.122  18.936   8.594 -0.1109  0.0521 -0.0346
    1W        W46748  19.646   0.957   8.440 -0.0120 -0.3725 -0.1842
    1W        W46749  17.874  17.155   7.017 -0.1895 -0.0753  0.0396
    1W        W46750  17.923  20.402   7.732  0.0386 -0.0089  0.0583
    1W        W46751   6.027  17.399   9.563  0.2282 -0.2044 -0.2171
    1W        W46752   7.562   1.239   2.288  0.0360  0.2205 -0.0847
    1W        W46753  19.622  20.811   2.816  0.3260 -0.0171 -0.2492
    1W        W46754  28.213  19.781   1.117 -0.4629  0.1420  0.1526
    1W        W46755  27.644  16.994   9.299  0.1444  0.0961 -0.0720
    1W        W46756   9.828  10.419   0.612  0.4070  0.1255  0.3204
    1W        W46757   6.587  10.099   3.063 -0.0228  0.2150  0.1884
    1W        W46758  19.622  10.346   0.808  0.3312 -0.0033 -0.0051
    1W        W46759  13.649  17.610   2.201  0.1001 -0.1962 -0.0413
    1W        W46760  24.527  28.627   7.290  0.1767 -0.1199  0.3363
    1W        W46761  24.558  24.768   1.085  0.0779  0.2538 -0.3958
    1W        W46762   6.978  18.948   2.578  0.0708 -0.1864  0.0377
    1W        W46763  13.153   5.886   3.195  0.1081 -0.1079  0.0083
    1W        W46764  12.297   8.646   7.910 -0.0635 -0.1371 -0.1369
    1W        W46765  18.497   3.723   0.028 -0.1206  0.2979  0.1168
    1W        W46766  27.226   7.035   1.764  0.2769  0.1245  0.2836
    1W        W46767  14.930  29.075   0.803 -0.2208  0.1199  0.1635
    1W        W46768  13.567   2.681   1.515 -0.0817  0.1165 -0.0591
    1W        W46769  24.040   3.007   6.478 -0.0102 -0.0454 -0.1552
    1W        W46770  28.035  27.147   3.160 -0.1225  0.0056 -0.2545
    1W        W46771  15.483  25.895   1.883 -0.1555  0.1683 -0.2860
    1W        W46772  13.124  19.971   1.937 -0.3397  0.1607  0.1508
    1W        W46773   3.913   6.480   0.296  0.0618  0.2255 -0.1723
    1W        W46774   9.348  25.795   7.478  0.2408  0.1716  0.0153
    1W        W46775   4.219   1.438   7.932 -0.3373 -0.2600  0.0071
    1W        W46776   6.741  16.939   7.731 -0.0013 -0.0530 -0.1997
    1W        W46777  26.840  15.861   6.939 -0.1290  0.3413 -0.2214
    1W        W46778  26.082  28.838   9.668  0.0151 -0.3385 -0.0276
    1W        W46779   5.255  16.393   7.593 -0.0908 -0.2890  0.0241
    1W        W46780   8.939  23.354   1.199  0.2330 -0.2422  0.1454
    1W        W46781   6.661  22.469   1.998 -0.0597 -0.0545  0.1874
    1W        W46782   4.588  28.376   1.393  0.0396  0.1502 -0.3320
    1W        W46783  14.154  19.014   2.043  0.2207 -0.1307  0.1235
    1W        W46784   9.772  20.105   9.521 -0.1754 -0.3373  0.0806
    1W        W46785  17.219  28.920   0.622  0.3578 -0.3178  0.0594
    1W        W46786  25.630  21.377   7.732 -0.0457  0.2431  0.0613
    1W        W46787   5.290   5.913   2.215 -0.1751 -0.3759 -0.0131
    1W        W46788   8.459  20.536   1.572 -0.1946  0.0933  0.0898
    1W        W46789   8.139   8.046   9.029  0.0116  0.0252  0.0922
    1W        W46790  16.843  17.714   2.855  0.1731  0.0886 -0.1151
    1W        W46791  20.560  16.185   7.347 -0.1830  0.0402 -0.0414
    1W        W46792  18.109  15.153   0.851  0.2089  0.1348  0.1169
    1W        W46793  10.401  28.237   2.631 -0.1988 -0.3767  0.1342
    1W        W46794   3.054   1.436   9.378 -0.0546 -0.1072 -0.1169
    1W        W46795  10.659  13.804   7.354  0.2442 -0.1872  0.0285
    1W        W46796  12.466  21.777   1.520 -0.1412 -0.3024 -0.1827
    1W        W46797   2.164   1.652   6.893  0.3526  0.0077 -0.0858
    1W        W46798   3.952  18.070   8.588  0.1574 -0.4270 -0.0714
    1W        W46799  18.147   0.076   1.618 -0.1327  0.2407  0.0027
    1W        W46800  10.453   3.359   8.589  0.1549 -0.2012 -0.1955
    1W        W46801  11.163   1.175   8.524  0.1479 -0.1683  0.1680
    1W        W46802   1.361  19.212   6.682 -0.0633  0.0768  0.2050
    1W        W46803  27.250  12.463   2.894  0.0269 -0.0228 -0.1081
    1W        W46804  12.119  19.975   1.507 -0.0043 -0.1350 -0.0527
    1W        W46805   6.408   4.236   0.608 -0.1347  0.2610  0.0536
    1W        W46806  20.534  23.712   9.078  0.0133  0.0637  0.2018
    1W        W46807   3.146  11.901   6.029  0.1283 -0.1260  0.0641
    1W        W46808  11.532   4.708   9.515 -0.1050 -0.5044 -0.0147
    1W        W46809  19.007  23.712   7.994  0.4182 -0.1220 -0.0333
    1W        W46810   7.014   5.215   2.235  0.0930  0.2338 -0.0732
    1W        W46811  28.186  12.160   7.470  0.2058  0.1287 -0.1381
    1W        W46812  28.448   8.647   6.610 -0.0049 -0.0298 -0.0912
    1W        W46813  24.840  11.027   6.813  0.1730  0.0086 -0.2466
    1W        W46814  13.896  14.390   8.470 -0.1132  0.0526  0.0623
    1W        W46815  23.458  10.075   7.638 -0.1400 -0.3062 -0.2840
    1W        W46816  23.573  13.061   1.412  0.2882  0.1652 -0.0007
    1W        W46817  15.511  11.450   0.067 -0.0538 -0.2171  0.2485
    1W        W46818  12.935   0.321   3.095 -0.0146 -0.0138  0.1811
    1W        W46819   4.010   0.599   6.688 -0.4025 -0.4332  0.2466
    1W        W46820   8.512  25.176   9.645 -0.1650  0.0148  0.2003
    1W        W46821  19.701  23.012   1.344 -0.2265  0.2100 -0.2267
    1W        W46822  15.636   3.095   1.857 -0.3201 -0.3393  0.0243
    1W        W46823  12.637  27.116   2.325  0.0748 -0.1377 -0.0137
    1W        W46824  15.403  29.255   4.142 -0.1532 -0.2270  0.4667
    1W        W46825   0.658   6.675   2.189  0.3190  0.4576 -0.0876
    1W        W46826   3.437  25.131   0.054 -0.1094  0.3634 -0.0371
    1W        W46827  11.265  18.553   8.744 -0.2253  0.0617  0.0038
    1W        W46828  13.592  16.142   9.272  0.0320  0.0073  0.0264
    1W        W46829  25.801  26.761   5.897  0.2421  0.0565 -0.0045
    1W        W46830   3.637  26.578   3.142 -0.5270  0.2581 -0.0571
    1W        W46831   4.992  20.791   9.451 -0.5637 -0.0674 -0.1242
    1W        W46832  18.305   9.610   0.371 -0.1693 -0.0298  0.0331
    1W        W46833  26.823  24.312   1.232 -0.0114  0.2142 -0.1739
    1W        W46834  17.041   9.137   7.686 -0.0915 -0.0786 -0.1058
    1W        W46835  22.043   8.180   6.636  0.0448  0.1003 -0.0481
    1W        W46836  14.608  20.977   0.111  0.0361 -0.0587  0.2155
    1W        W46837  18.684   0.476   2.375  0.4312  0.0470  0.0515
    1W        W46838  24.433  17.899   0.444 -0.2774  0.1255 -0.1270
    1W        W46839   8.066   9.472   0.904 -0.5667 -0.0992  0.1918
    1W        W46840   7.412   5.496   2.091 -0.3043 -0.1897  0.2880
    1W        W46841   3.052  13.375   0.116 -0.2811  0.1843  0.1757
    1W        W46842  22.079  11.609   0.590  0.3593  0.0401  0.0063
    1W        W46843  19.624  25.454   8.334  0.2252  0.1017  0.0124
    1W        W46844   9.626  19.905   0.347  0.0563 -0.0676  0.0378
    1W        W46845  11.937  10.208   0.584 -0.1339 -0.0603  0.1845
    1W        W46846  13.541   7.377   1.855  0.1048 -0.0135  0.1556
    1W        W46847  11.677  10.041   8.964  0.1248 -0.3366  0.1401
    1W        W46848  19.060   7.588   2.214 -0.0447  0.0903 -0.0431
    1W        W46849  21.760   2.744   2.745 -0.2550  0.3026  0.1336
    1W        W46850   6.167   8.399   6.881 -0.2930 -0.1003 -0.1685
    1W        W46851  16.524   7.057   0.972 -0.0998  0.1343  0.1788
    1W        W46852  15.083   5.824   7.762 -0.0205  0.0116  0.1057
    1W        W46853  17.699  12.607   0.116  0.3068  0.1710  0.1590
    1W        W46854  18.392   0.469   0.601 -0.1984  0.2072  0.1089
    1W        W46855  12.888  26.676   2.487 -0.0478  0.0053 -0.0192
    1W        W46856  23.727  11.212   2.027 -0.0339  0.1839 -0.0422
    1W        W46857   6.671   5.730   1.605 -0.1087  0.1655  0.2852
    1W        W46858  28.413   7.132   2.162 -0.1038 -0.0707 -0.3239
    1W        W46859   2.934  25.314   7.099  0.0525  0.0856  0.1393
    1W        W46860  23.111  24.597   0.783  0.3333  0.0696  0.0711
    1W        W46861  27.964  22.407   1.277 -0.0726 -0.0365 -0.1476
    1W        W46862   2.992  28.374   8.442 -0.2475 -0.0131 -0.1619
    1W        W46863  15.878  19.140   7.937  0.2307  0.2497 -0.0707
    1W        W46864   5.522  24.551   8.139 -0.0301  0.2485 -0.2300
    1W        W46865   8.718   4.746   1.167 -0.1999 -0.2329 -0.2008
    1W        W46866  14.489  14.243   7.198 -0.2356 -0.1434 -0.0085
    1W        W46867   7.340  10.873   2.166  0.1255  0.0578 -0.2130
    1W        W46868   7.062  16.294   7.866  0.2514 -0.5365  0.2559
    1W        W46869  28.909   7.958   1.962  0.1101 -0.2472  0.1223
    1W        W46870  18.247  14.268   7.749 -0.1396  0.1067 -0.2359
    1W        W46871   4.590  27.415   7.435 -0.1140 -0.1462 -0.0509
    1W        W46872   6.353   4.116   3.003  0.0188  0.0193  0.1240
    1W        W46873  28.778   5.626   8.562 -0.6299  0.4621 -0.0245
    1W        W46874  27.355  18.054   7.732  0.0218 -0.0791 -0.1753
    1W        W46875  26.794  17.814   8.525 -0.1575  0.0121  0.1314
    1W        W46876  27.326  24.933   8.233 -0.2782  0.2017  0.2609
    1W        W46877   2.023  26.037   9.255 -0.2311 -0.0860 -0.1952
    1W        W46878  15.603  20.077   0.174 -0.3449 -0.2174  0.0575
    1W        W46879  25.465  24.097   9.554  0.0523 -0.1346  0.1532
    1W        W46880  28.278   0.084   8.980 -0.1673  0.3995 -0.0493
    1W        W46881  11.383  23.600   1.440  0.1565 -0.0348  0.4717
    1W        W46882  19.262  12.089   9.118 -0.2714 -0.4773  0.1983
    1W        W46883  27.576  16.464   7.099 -0.0049 -0.0993 -0.0986
    1W        W46884  21.838  12.518   7.105  0.2286  0.1252  0.2330
    1W        W46885  17.605   3.902   1.034 -0.1600  0.0771  0.0582
    1W        W46886  17.941  22.996   1.814  0.0221  0.3799  0.3086
    1W        W46887   9.125   3.274   2.982  0.0857  0.2314 -0.0356
    1W        W46888   7.070  11.769   7.980 -0.1726 -0.1965  0.2832
    1W        W46889   0.189   5.009   7.992 -0.1199 -0.2171 -0.2882
    1W        W46890  15.278  29.267   1.100  0.1044  0.3833 -0.1882
    1W        W46891   0.086  12.217   8.835 -0.2234  0.0389 -0.2809
    1W        W46892  15.225  12.855   0.492 -0.6142  0.1387 -0.2878
    1W        W46893  19.395  24.795   1.406 -0.0161 -0.2326 -0.3285
    1W        W46894   9.956   3.257   6.905  0.3656 -0.1798 -0.0136
    1W        W46895   3.218  18.108   9.138  0.1025  0.2639  0.0559
    1W        W46896  27.633  16.630   1.296 -0.0289 -0.1749 -0.0937
    1W        W46897  28.853  24.475   0.298  0.3210 -0.2181 -0.1407
    1W        W46898  24.215  13.866   1.226 -0.1410 -0.1932  0.2448
    1W        W46899  21.570  28.435   7.805 -0.0467 -0.3581 -0.1165
    1W        W46900   4.624   9.503   1.712  0.2144  0.1956 -0.0075
    1W        W46901  24.085   7.766   6.434 -0.1305  0.2335 -0.0639
    1W        W46902  27.911  11.229   8.135 -0.2390 -0.3147  0.0950
    1W        W46903   3.955   7.743   0.373  0.0591  0.0072  0.5623
    1W        W46904  11.229  25.928   7.627  0.3381  0.0261  0.3872
    1W        W46905  28.971  21.526   0.522  0.1097  0.0327  0.0359
    1W        W46906  22.181   3.376   0.301  0.2996  0.0584 -0.1321
    1W        W46907  13.293  26.378   9.156  0.0613  0.0020  0.1421
    1W        W46908   9.833   3.681   0.640  0.4355  0.0465 -0.0385
    1W        W46909   4.523  18.916   1.283  0.1803 -0.2967  0.0399
    1W        W46910  19.821  10.767   8.760  0.4173 -0.6155 -0.3097
    1W        W46911  29.222  27.137   9.461 -0.3400 -0.1471 -0.3227
    1W        W46912  21.643  17.785   8.572 -0.4007  0.0835 -0.1727
    1W        W46913  14.763  16.779   0.755 -0.2966 -0.1234  0.0779
    1W        W46914  11.867  23.442   1.270  0.0664  0.1559  0.0195
    1W        W46915  16.119  24.177   8.870  0.1972  0.0947  0.3118
    1W        W46916  16.393  28.114   3.391 -0.2970 -0.2049  0.0564
    1W        W46917  20.467  22.442   8.143  0.1301  0.0012 -0.3842
    1W        W46918  28.292  22.707   7.845  0.0112 -0.0970  0.3908
    1W        W46919  10.277  11.341   0.457 -0.1057 -0.1281  0.1068
    1W        W46920  25.599  10.987   6.483  0.1109  0.0181  0.3310
    1W        W46921   4.413  13.256   2.191 -0.0358 -0.1377  0.0816
    1W        W46922   6.573  26.513   0.241  0.2853  0.1181 -0.0493
    1W        W46923  18.888   3.884   1.868 -0.0332 -0.0010 -0.4838
    1W        W46924  25.326  17.910   1.849 -0.1603 -0.0483  0.0806
    1W        W46925  12.021  21.454   2.200  0.0140 -0.2970 -0.1251
    1W        W46926  22.318  14.971   1.946  0.2810 -0.1810  0.2462
    1W        W46927   0.091  25.266   7.040 -0.4735  0.4468 -0.1170
    1W        W46928  13.721  20.522   6.711  0.2337 -0.2936 -0.1524
    1W        W46929   2.454  11.522   1.188  0.6814 -0.1081 -0.0163
    1W        W46930   2.520   9.580   9.452 -0.0472  0.1659  0.0674
    1W        W46931  19.586   1.665   1.067 -0.0068 -0.0019 -0.0919
    1W        W46932   7.527   6.789   2.689 -0.1541 -0.3322  0.2936
    1W        W46933  21.943  21.926   6.408  0.1400 -0.0447  0.0310
    1W        W46934  19.832  28.477   1.397 -0.2603  0.0743 -0.1530
    1W        W46935   1.774  24.288   2.213  0.4915 -0.0528 -0.0488
    1W        W46936  14.799   7.487   3.930 -0.5805  0.0403  0.1077
    1W        W46937  12.045   4.040   3.025 -0.0048 -0.0947  0.1501
    1W        W46938   6.809  26.543   1.107  0.0181  0.1152 -0.2521
    1W        W46939  11.394  19.065   6.854  0.0617 -0.2060 -0.1191
    1W        W46940  27.021  25.890   6.872 -0.1275 -0.3338  0.0664
    1W        W46941   8.850  17.838   8.128 -0.0574  0.0600 -0.0889
    1W        W46942  10.787   0.922   4.414  0.0007 -0.1049  0.1413
    1W        W46943  27.924  22.643   1.726  0.3459 -0.0260 -0.2835
    1W        W46944   9.045   6.804   7.615  0.1173 -0.2362 -0.0389
    1W        W46945   2.327  23.194   8.347  0.2518 -0.1917 -0.0152
    1W        W46946   0.449  12.868   8.511 -0.3433  0.0833  0.0292
    1W        W46947  13.791   1.482   7.426  0.2488  0.1447 -0.1047
    1W        W46948   5.951  23.155   0.305  0.0241  0.1575 -0.0386
    1W        W46949  24.364  26.622   9.565 -0.1339  0.0654  0.1848
    1W        W46950  26.495  22.157   2.386  0.2643 -0.1971  0.1856
    1W        W46951  26.722  19.785   6.765 -0.1609  0.1973  0.1371
    1W        W46952  22.399   4.468   7.037 -0.3775  0.1418  0.3325
    1W        W46953  12.914  20.623   8.516  0.0728  0.0895  0.2547
    1W        W46954  14.942  12.548   0.980 -0.3213 -0.0211  0.1061
    1W        W46955  21.800  27.805   7.197 -0.3215  0.0318 -0.1143
    1W        W46956  13.034   2.110   1.948 -0.3536  0.1466  0.3140
    1W        W46957  13.107  28.485   1.210 -0.0840 -0.2896 -0.5605
    1W        W46958  27.815  27.657   3.373  0.0081  0.0979  0.0371
    1W        W46959  17.815  25.317   1.504  0.2534  0.1092 -0.2622
    1W        W46960  10.965  13.127   0.298  0.0211  0.0474 -0.1809
    1W        W46961  16.115  22.811   7.883  0.3642 -0.2469  0.2762
    1W        W46962   2.602   9.239   1.583 -0.0091 -0.2970  0.0038
    1W        W46963  20.093  26.058   0.753 -0.1570 -0.3347  0.2130
    1W        W46964  19.025  23.775   1.302 -0.2931  0.1933 -0.0839
    1W        W46965  15.632  18.264   1.587  0.3160 -0.0142 -0.1303
    1W        W46966  24.088   6.507   1.409  0.0990  0.2180  0.0256
    1W        W46967  22.038   8.387   0.863 -0.0330 -0.1266 -0.2762
    1W        W46968  19.388  17.619   8.661 -0.0799 -0.1424  0.0994
    1W        W46969  11.582   9.335   9.331  0.0430  0.0530 -0.1283
    1W        W46970  10.270   6.297   1.359  0.2423  0.1563  0.0254
    1W        W46971  13.056  14.674   8.536 -0.0954 -0.0474  0.0868
    1W        W46972   3.099   7.584   6.316  0.0232 -0.2291 -0.0715
    1W        W46973   9.945  14.676   7.615 -0.3029 -0.2863 -0.4764
    1W        W46974  24.555  25.230   7.701  0.0630 -0.1108 -0.2059
    1W        W46975  24.618   2.517   8.793 -0.0855  0.0462 -0.0457
    1W        W46976   2.764   6.435   5.836  0.3720 -0.1202 -0.1354
    1W        W46977  14.147  17.811   8.229 -0.2115 -0.1078  0.0939
    1W        W46978   2.723   0.827   7.194  0.0961  0.1165  0.0839
    1W        W46979  11.332  14.567   8.248  0.2074 -0.1357 -0.1036
    1W        W46980  27.809   2.582   9.118 -0.0047 -0.1297 -0.1909
    1W        W46981  28.051  29.031   0.659  0.3303  0.1635  0.0318
    1W        W46982  10.194  24.078   1.871 -0.0317 -0.0500 -0.1201
    1W        W46983  17.267  12.496   1.315 -0.0206  0.4032  0.0850
    1W        W46984  24.660  27.921   1.630  0.3687 -0.0658 -0.0974
    1W        W46985   6.402  19.261   0.805  0.1374  0.0810  0.3329
    1W        W46986  23.366   7.507   1.623 -0.2831 -0.0639 -0.2440
    1W        W46987  12.060  23.352   6.821  0.2364  0.0055  0.1584
    1W        W46988   9.079  25.602   7.867  0.1295  0.2828  0.2249
    1W        W46989   8.231  20.546   5.925 -0.0912  0.0121 -0.2306
    1W        W46990  12.027  13.202   1.161 -0.3363  0.2197 -0.1695
    1W        W46991  27.920   1.484   9.112 -0.2234 -0.2164  0.1015
    1W        W46992  29.021  14.839   1.085  0.2601  0.0943  0.3717
    1W        W46993  27.092  17.653   7.736  0.0874 -0.0051 -0.0686
    1W        W46994   1.139  18.932   2.346  0.0217  0.1443  0.3018
    1W        W46995  20.822  23.965   7.070  0.1034  0.0330 -0.1331
    1W        W46996  15.347   6.324   2.864  0.2453  0.0931 -0.2002
    1W        W46997  14.291  26.664   9.424  0.3908  0.2116  0.3489
    1W        W46998   9.166   7.738   1.950 -0.0862  0.0095 -0.0681
    1W        W46999  13.041  28.294   0.675 -0.1707  0.0651 -0.0209
    1W        W47000  26.069   1.507   1.698  0.3186  0.1919  0.0296
    1W        W47001  12.261  13.072   9.083  0.0471  0.3512 -0.0302
    1W        W47002  17.857   0.283   3.001  0.1767  0.0782  0.3950
    1W        W47003  24.997  21.444   9.222 -0.0084 -0.0627  0.0544
    1W        W47004  10.301  22.131   0.746  0.0838  0.2429  0.0410
    1W        W47005  27.646  28.769   1.841  0.0525  0.3276  0.2740
    1W        W47006  17.619  28.389   2.729 -0.5404 -0.4214  0.1330
    1W        W47007  29.322  26.128   7.227 -0.0960  0.2563 -0.1278
    1W        W47008  24.602  29.210   0.876  0.0026  0.0184  0.4393
    1W        W47009  20.371   4.342   2.211 -0.0186  0.1365  0.1124
    1W        W47010   8.285  24.347   5.692 -0.0193  0.0797  0.0223
    1W        W47011  23.434  22.713   9.383  0.3265 -0.1115 -0.0514
    1W        W47012  20.940  19.039   0.299 -0.0249  0.1502 -0.2702
    1W        W47013  15.291  24.734   1.967 -0.0094  0.1453  0.2841
    1W        W47014   1.459  20.627   9.369  0.1748 -0.2467  0.1599
    1W        W47015  15.003   0.173   3.835 -0.0462 -0.3037  0.1783
    1W        W47016  27.009   0.614   9.383  0.1986 -0.2295 -0.1523
    1W        W47017   4.756  17.473   8.036  0.0329 -0.0522 -0.0310
    1W        W47018  15.753  28.152   8.102  0.1622 -0.2949  0.0186
    1W        W47019  22.187  11.811   0.078  0.0367  0.0397  0.0237
    1W        W47020   0.034  14.622   1.868 -0.0762 -0.1560  0.1251
    1W        W47021  22.457  21.506   0.107  0.0617 -0.1573  0.0947
    1W        W47022  25.477  17.471   2.788  0.0918 -0.0944 -0.0495
    1W        W47023  25.952  27.179   1.117  0.1224  0.1010  0.1650
    1W        W47024  21.003  26.492   0.050 -0.1354 -0.0638  0.2697
    1W        W47025  11.058  16.060   8.413  0.0226 -0.2138 -0.0173
    1W        W47026   6.065  22.641   7.156  0.1849 -0.3587  0.2168
    1W        W47027   8.133  24.948   1.892 -0.0828 -0.0964  0.0286
    1W        W47028  24.844  12.271   6.781  0.1291  0.0148  0.0034
    1W        W47029   9.998  20.771   6.571 -0.0431 -0.1214  0.1183
    1W        W47030  25.353  20.150   1.144 -0.3700 -0.1364 -0.2690
    1W        W47031  28.124  19.667   7.438 -0.1990  0.0075  0.2642
    1W        W47032  13.989  26.911   8.829 -0.2743  0.1972  0.0613
    1W        W47033  12.926  24.336   9.240  0.2031  0.3656 -0.3813
    1W        W47034   4.787  23.910   9.580 -0.0725 -0.1116  0.4280
    1W        W47035  21.505  27.364   2.256  0.0250  0.5153 -0.0762
    1W        W47036  14.504  11.215   2.965  0.0651  0.1027  0.1917
    1W        W47037  20.307  20.752   1.738  0.2366  0.0153 -0.0129
    1W        W47038   1.810   8.095   9.382  0.4148  0.2426  0.0524
    1W        W47039   5.542   3.247   0.681 -0.1044 -0.0675  0.0040
    1W        W47040   4.684   7.817   2.012 -0.1282  0.0755 -0.0893
    1W        W47041  27.970   6.795   2.034 -0.0777 -0.2348  0.0413
    1W        W47042  18.889  15.532   1.616 -0.3160 -0.1290 -0.0261
    1W        W47043  18.457  23.583   1.347  0.0253 -0.0216 -0.1704
    1W        W47044  13.251  10.990   7.962  0.0167  0.2900  0.0197
    1W        W47045  12.343  13.440   0.636  0.0238  0.0062  0.0561
    1W        W47046  15.092  28.487   3.794  0.0498  0.5013 -0.0623
    1W        W47047   1.548  14.018   0.592  0.1102 -0.4453 -0.2276
    1W        W47048  20.034  24.774   7.392 -0.0540  0.0212  0.2604
    1W        W47049  19.816   6.482   1.008  0.1482 -0.0982 -0.1899
    1W        W47050  12.829  27.450   2.584 -0.0425 -0.0940 -0.0478
    1W        W47051   2.153  22.550   6.820 -0.1893  0.4304 -0.0627
    1W        W47052   4.733  25.234   8.866 -0.0116  0.0326 -0.0593
    1W        W47053   0.017  18.675   9.535  0.2885  0.2596  0.1839
    1W        W47054   5.552  16.652   5.635  0.0070  0.2157 -0.2292
    1W        W47055  15.864  24.860   7.890 -0.2448 -0.1339 -0.0652
    1W        W47056  13.300  25.862   1.891 -0.2283 -0.0263  0.1084
    1W        W47057  14.908  15.528   8.368  0.0035 -0.1609  0.2220
    1W        W47058  14.982  27.312   0.990 -0.0070 -0.2061 -0.0882
    1W        W47059   4.304   6.766   8.676 -0.2777 -0.1643  0.0479
    1W        W47060  20.662  10.807   9.427 -0.3460  0.0325  0.1555
    1W        W47061   8.036  24.662   2.742  0.0988  0.3222 -0.0642
    1W        W47062   6.499  24.646   6.365 -0.4403  0.2368 -0.1037
    1W        W47063   5.714  12.887   0.218 -0.0512  0.0505  0.1709
    1W        W47064  26.813   7.232   8.125 -0.2402  0.1104 -0.2873
    1W        W47065   7.323  19.797   1.144 -0.3624  0.0657 -0.1943
    1W        W47066  26.417   6.397   1.260  0.0001  0.0237 -0.1988
    1W        W47067  20.058  17.356   8.144 -0.2383 -0.1155 -0.0895
    1W        W47068  29.217  13.314   6.561  0.4387 -0.3404  0.1489
    1W        W47069  25.295  15.274   6.991  0.0697 -0.3570  0.5403
    1W        W47070   0.343   8.446   7.984 -0.1189 -0.3292 -0.1514
    1W        W47071  26.044  24.681   0.064 -0.1841  0.0005 -0.0090
    1W        W47072  24.225  19.094   0.391  0.0008  0.0614 -0.0497
    1W        W47073  13.756  28.658   9.307  0.1113  0.3408  0.0825
    1W        W47074  15.924  15.893   2.056  0.1277  0.0525 -0.0468
    1W        W47075   4.517  10.198   6.115 -0.0623  0.0475 -0.0963
    1W        W47076   0.122   1.539   7.706  0.2876 -0.1502 -0.0915
    1W        W47077  20.453  22.380   1.224 -0.0687 -0.3755  0.2275
    1W        W47078   8.671  24.343   8.567 -0.1514 -0.0193  0.2924
    1W        W47079  26.395   3.929   6.428  0.1572  0.1263  0.1271
    1W        W47080  25.200   4.547   0.335  0.0190  0.0471 -0.2625
    1W        W47081   1.172  13.112   9.199 -0.0157 -0.2324 -0.0359
    1W        W47082   8.037  24.252   0.797 -0.0441  0.0622  0.3130
    1W        W47083   2.589  22.847   8.747 -0.1471 -0.2586 -0.1537
    1W        W47084  28.525  14.232   8.998 -0.0405 -0.3200 -0.0174
    1W        W47085   4.015   4.629   1.070  0.0954 -0.0429  0.1382
    1W        W47086   6.412   0.689   9.315  0.3265 -0.0771  0.0777
    1W        W47087  16.424   3.185   3.975 -0.1761  0.2552  0.0766
    1W        W47088  18.101  21.284   7.680  0.4430  0.1048  0.0150
    1W        W47089   3.559  10.798   7.903 -0.0955  0.2384  0.2216
    1W        W47090  23.552   5.060   2.217 -0.1037  0.0293  0.0094
    1W        W47091  10.351  28.119   0.013  0.2311 -0.0333  0.1932
    1W        W47092  12.340  13.990   2.212  0.1421 -0.2952  0.0209
    1W        W47093   9.557   8.137   7.929  0.1042  0.1279 -0.0334
    1W        W47094  17.446   9.404   7.877  0.4787 -0.0353 -0.2213
    1W        W47095  20.291  23.108   6.234 -0.1943 -0.0965 -0.0312
    1W        W47096  10.425  11.515   7.991 -0.0019 -0.4144  0.2865
    1W        W47097  14.027   6.549   1.329 -0.0285 -0.1678  0.2165
    1W        W47098   0.889   5.768   7.628  0.0419 -0.2933  0.2803
    1W        W47099  17.535  18.414   8.378  0.2112  0.0742 -0.0700
    1W        W47100  13.889   1.588   1.872 -0.0094  0.3555  0.0203
    1W        W47101   6.982   8.485   6.419  0.0534 -0.0319  0.0498
    1W        W47102   5.122  17.884   8.028  0.0158  0.0916  0.0078
    1W        W47103  17.538   9.104   8.869  0.2259 -0.0045  0.1428
    1W        W47104   4.222  14.011   2.540  0.0888  0.0285  0.3104
    1W        W47105   9.007   6.818   9.136 -0.2793 -0.1445  0.4511
    1W        W47106  12.559  10.276   8.153  0.0600 -0.0827  0.0731
    1W        W47107   0.430   1.185   7.415  0.2976 -0.0418  0.2138
    1W        W47108   1.630  23.145   7.201  0.1137 -0.0934 -0.1417
    1W        W47109   4.105  26.230   9.202 -0.0393 -0.1495 -0.0141
    1W        W47110  11.893   8.776   2.329 -0.2677  0.0069 -0.2130
    1W        W47111   4.282   7.538   7.677 -0.0405  0.3105  0.0900
    1W        W47112  12.525  19.931   9.624 -0.0446  0.0418 -0.0203
    1W        W47113  22.674  12.768   0.458  0.0382  0.0731 -0.0539
    1W        W47114  14.475  28.924   1.015 -0.2226  0.0022 -0.2054
    1W        W47115  25.817  14.451   2.015  0.2718 -0.3209 -0.3329
    1W        W47116  10.311  23.466   7.127  0.2756 -0.1561 -0.1208
    1W        W47117  14.184   1.234   3.017  0.2197 -0.3468 -0.2631
    1W        W47118  10.897   7.615   7.308 -0.0339 -0.0881  0.0054
    1W        W47119  19.916  27.612   9.314 -0.0732 -0.2073 -0.1306
    1W        W47120  10.834   5.188   8.136 -0.3449 -0.4442 -0.0538
    1W        W47121  10.931   7.056   7.334 -0.0160 -0.2050  0.0450
    1W        W47122   1.278   7.927   6.032 -0.2703  0.0509 -0.2537
    1W        W47123   3.144  27.888   3.057 -0.1007  0.2067  0.1847
    1W        W47124   6.033   2.185   1.499  0.1506 -0.2385  0.3136
    1W        W47125  19.304  26.765   9.089 -0.0311 -0.1731 -0.2981
    1W        W47126  26.747  11.117   8.070  0.1851 -0.0423 -0.0761
    1W        W47127  14.734  24.889   2.675 -0.1715  0.0674 -0.2125
    1W        W47128   7.762  23.613   0.079  0.1489 -0.4983  0.0848
    1W        W47129   0.872   8.994   0.499  0.0619  0.0845 -0.2238
    1W        W47130   6.923  17.274   6.578  0.2210 -0.0320 -0.1456
    1W        W47131   7.618  16.251   7.985 -0.0689  0.0329  0.0285
    1W        W47132   3.864  13.146   0.602 -0.2515 -0.1680 -0.2570
    1W        W47133   3.100  25.801   8.794  0.1207 -0.4727 -0.1105
    1W        W47134   0.993  17.538   1.446 -0.0278  0.1052  0.0630
    1W        W47135   2.947  12.572   6.372 -0.2951 -0.1766  0.0685
    1W        W47136  28.237  23.768   7.981 -0.2333  0.1391 -0.1005
    1W        W47137  24.194  26.562   0.399  0.2762  0.2184  0.0441
    1W        W47138   7.977  14.602   0.365 -0.0928 -0.1299  0.1305
    1W        W47139   8.263   2.046   9.373 -0.0731  0.0786 -0.0440
    1W        W47140  18.920  10.648   0.540 -0.1101  0.1906 -0.0902
    1W        W47141  28.941  16.432   6.132 -0.1062  0.0982  0.2508
    1W        W47142   7.108  17.410   8.927  0.2209 -0.3658 -0.0465
    1W        W47143   5.099   6.869   6.910  0.0506  0.2521 -0.1077
    1W        W47144   3.213   3.190   1.363  0.1719 -0.0535 -0.1835
    1W        W47145   3.208  13.229   1.418 -0.3139  0.0464  0.2358
    1W        W47146   7.258  28.965   1.166 -0.0667  0.1185 -0.1138
    1W        W47147  28.441  24.950   0.188 -0.0819 -0.3241 -0.0125
    1W        W47148  13.068   5.534   2.410  0.0322 -0.0818 -0.2919
    1W        W47149  20.986   5.643   8.226 -0.0059  0.0031  0.1312
    1W        W47150  20.596  15.771   1.442  0.3891  0.1676 -0.1459
    1W        W47151  18.989  19.915   1.984  0.0774 -0.0308  0.2591
    1W        W47152   4.374  11.090   8.577 -0.0665 -0.2379 -0.0830
    1W        W47153   9.455   4.070   2.954 -0.1248 -0.1930 -0.0310
    1W        W47154  12.010  27.812   2.611 -0.0881 -0.0326  0.0863
    1W        W47155   5.551  10.730   9.217 -0.3458  0.2291 -0.1388
    1W        W47156   7.827   9.816   1.926  0.0545 -0.2705 -0.1572
    1W        W47157   9.104  11.519   7.603  0.1295 -0.0376 -0.1007
    1W        W47158  11.760   7.392   8.531  0.1227 -0.1820 -0.0697
    1W        W47159   2.819  24.835   1.636  0.1042 -0.1809 -0.0360
    1W        W47160  12.047  20.551   0.272  0.2055  0.1925  0.1293
    1W        W47161  24.560   8.271   6.634 -0.2442 -0.2772  0.1624
    1W        W47162  20.667  13.387   1.257 -0.0481  0.2065 -0.0893
    1W        W47163   3.200   6.291   2.177  0.2968  0.2330 -0.0977
    1W        W47164  19.513  27.675   1.084 -0.0130 -0.1126  0.2851
    1W        W47165  20.227  27.486   7.188  0.1144 -0.3383 -0.1122
    1W        W47166   0.665  14.485   0.578 -0.0629 -0.2027 -0.0410
    1W        W47167  20.188  14.127   1.139 -0.1168  0.1534  0.0546
    1W        W47168  24.364   4.184   0.867  0.2633  0.0489  0.0489
    1W        W47169  20.599  20.885   1.382 -0.3949  0.1079  0.3677
    1W        W47170  23.794  24.895   8.168  0.1313  0.2846  0.0383
    1W        W47171  16.718   3.183   7.782  0.1092  0.2046  0.1787
    1W        W47172  24.671   7.941   7.160  0.3487 -0.0698  0.1304
    1W        W47173  14.229  16.766   0.837 -0.0499  0.1512 -0.0227
    1W        W47174   6.209  29.274   1.700 -0.2059 -0.1131  0.4251
    1W        W47175  16.608   2.149   7.744 -0.2568  0.1006  0.0242
    1W        W47176  28.295  11.009   1.908 -0.1028 -0.0782  0.1116
    1W        W47177  16.920  26.220   2.294  0.2313  0.1028  0.0283
    1W        W47178   8.313   3.675   7.814  0.0059 -0.0617  0.0669
    1W        W47179  19.900   3.080   3.515  0.2558 -0.0274  0.0816
    1W        W47180  28.490  21.276   0.389 -0.2793 -0.2342  0.0730
    1W        W47181  11.906  11.732   8.954 -0.0024 -0.3974  0.1964
    1W        W47182   3.949   0.196   1.557 -0.3540  0.0485 -0.0828
    1W        W47183  19.398   4.012   8.442  0.1599 -0.0906  0.1423
    1W        W47184   4.804  26.872   7.731 -0.0954 -0.3287 -0.1261
    1W        W47185  13.798  24.965   2.464  0.0414  0.1614 -0.0573
    1W        W47186  28.859  11.206   6.672 -0.0635 -0.0857 -0.3995
    1W        W47187   8.150  23.728   1.913  0.4978  0.2394  0.1078
    1W        W47188  15.463  18.116   2.072 -0.1253 -0.1465 -0.1946
    1W        W47189  27.205   3.155   7.741 -0.2001  0.1319  0.3260
    1W        W47190  11.750  24.418   1.282  0.0519  0.0979  0.1836
    1W        W47191  14.974  17.345   8.511 -0.0340  0.1875  0.1700
    1W        W47192  24.968  17.741   7.361  0.1067  0.0349 -0.1553
    1W        W47193  27.113  20.143   0.291 -0.1333  0.0652  0.3217
    1W        W47194   5.632  16.371   1.567  0.1247 -0.2144  0.1019
    1W        W47195  24.380  24.305   2.113 -0.1394  0.1886 -0.0159
    1W        W47196  23.873  22.884   3.535  0.1320 -0.2149 -0.1549
    1W        W47197   9.333  16.349   2.738  0.0307 -0.1272 -0.0488
    1W        W47198   7.540   3.292   2.134  0.1160 -0.3352  0.1298
    1W        W47199  29.226   6.310   8.864  0.2377  0.0603  0.1562
    1W        W47200  13.257   6.912   1.723 -0.1281  0.1333 -0.0348
    1W        W47201  21.382   8.594   3.631  0.5014  0.0549  0.1655
    1W        W47202   4.770   4.163   8.156 -0.3146 -0.0258  0.2551
    1W        W47203  16.679  11.833   1.351  0.1697 -0.2341 -0.2873
    1W        W47204   6.744  23.729   2.830  0.1682 -0.1523 -0.0329
    1W        W47205  13.257   3.609   1.167 -0.1461  0.0636 -0.1531
    1W        W47206  10.901  10.891   1.996 -0.1657 -0.2054  0.0479
    1W        W47207  25.260   6.550   6.909 -0.1323  0.1068  0.2772
    1W        W47208  13.372  24.532   3.124  0.1053  0.2514  0.0563
    1W        W47209  28.320  16.050   0.978  0.3445 -0.0245 -0.0840
    1W        W47210  12.438  25.152   2.702  0.2851  0.0105 -0.3727
    1W        W47211  19.901  27.966   1.369 -0.2894  0.1144  0.1044
    1W        W47212   3.782   2.616   1.840  0.0910 -0.1526  0.0044
    1W        W47213   6.486  16.909   8.945 -0.1497 -0.1153  0.2322
    1W        W47214   0.765  12.980   7.551 -0.1551 -0.0469 -0.0478
    1W        W47215  21.995  28.357   1.628 -0.1891 -0.0101  0.3016
    1W        W47216   0.301  15.708   1.051 -0.3720 -0.0627  0.0553
    1W        W47217   4.412  19.640   6.847  0.0610 -0.0119 -0.1987
    1W        W47218  20.156  12.642   0.939  0.0413 -0.0342  0.1480
    1W        W47219   0.095  27.160   0.854 -0.1993  0.2458 -0.1561
    1W        W47220  25.156  12.213   8.326 -0.0807 -0.0735 -0.1014
    1W        W47221   7.427   7.481   0.954 -0.0187  0.3411 -0.3594
    1W        W47222   1.509   1.265   9.630 -0.3481 -0.1020  0.0406
    1W        W47223  16.002  19.819   9.004  0.2556  0.1255 -0.1848
    1W        W47224   3.292   7.177   9.430 -0.0698 -0.2162 -0.1308
    1W        W47225  29.104  16.992   1.607  0.3451  0.2499 -0.0544
    1W        W47226   2.381   1.774   8.743 -0.0053  0.0680  0.2247
    1W        W47227  22.747  18.237   6.987  0.0329 -0.0118  0.0236
    1W        W47228  24.754  18.986   2.369 -0.0832  0.2101  0.2209
    1W        W47229  18.067   3.860   3.014  0.3207 -0.2426  0.0119
    1W        W47230  24.978   4.997   7.084  0.0973  0.0246 -0.1324
    1W        W47231  14.209  19.118   0.096 -0.1426  0.1142 -0.1616
    1W        W47232   7.567   6.425   8.142 -0.1643  0.0670  0.0961
    1W        W47233  19.873   4.200   0.987 -0.3099  0.0901 -0.2972
    1W        W47234  25.502  13.932   9.625 -0.3852 -0.0597  0.2928
    1W        W47235  27.085   5.200   8.298 -0.0735  0.4341 -0.4275
    1W        W47236  26.658  15.518   8.175 -0.0635  0.1241 -0.0687
    1W        W47237   9.640   9.143   0.255 -0.0733  0.0419  0.2051
    1W        W47238  24.281   7.954   1.609  0.0544 -0.1386 -0.1416
    1W        W47239  17.448  15.083   1.859 -0.1022 -0.0332 -0.1340
    1W        W47240   1.813  13.035   8.214  0.0625  0.0836  0.0286
    1W        W47241   3.984  21.159   6.861 -0.1161 -0.2241 -0.1264
    1W        W47242  23.517  12.234   6.367 -0.0050 -0.0497 -0.0871
    1W        W47243  10.654  24.425   1.269 -0.6211 -0.2611 -0.1825
    1W        W47244  26.723   5.621   1.550 -0.0210  0.1116  0.2567
    1W        W47245   8.184   6.343   1.168  0.4217  0.0873  0.0094
    1W        W47246   8.671   2.197   3.213 -0.2035  0.0297  0.2000
    1W        W47247  20.523  24.763   7.196  0.1888 -0.1195  0.2231
    1W        W47248   5.396  29.040   1.327 -0.0395 -0.0535  0.0545
    1W        W47249  23.656  27.505   3.253  0.0786  0.0793 -0.2407
    1W        W47250   2.837   9.719   1.365  0.0554 -0.0588 -0.3143
    1W        W47251  15.619  24.884   1.069  0.1454 -0.1526  0.2008
    1W        W47252  17.707   4.188   7.906  0.0452  0.1002 -0.2263
    1W        W47253  13.034   1.006   3.881 -0.1935 -0.6788 -0.2414
    1W        W47254   5.245  11.371   1.510  0.1835  0.0907  0.2651
    1W        W47255  24.504  28.724   0.880  0.1904 -0.1944  0.3137
    1W        W47256  27.738   0.317   1.413 -0.1565  0.0935 -0.2613
    1W        W47257  15.548   1.612   2.403  0.1789 -0.0653  0.0233
    1W        W47258   6.184  22.095   1.335  0.0568  0.1370  0.1382
    1W        W47259  27.402   9.806   7.780  0.0460  0.2122 -0.1686
    1W        W47260   3.713   8.929   6.928  0.2300 -0.0923  0.2131
    1W        W47261  26.130   2.658   9.649 -0.3634  0.0713 -0.0328
    1W        W47262   3.877  19.735   6.847 -0.2404  0.2073 -0.0862
    1W        W47263  25.454  20.955   2.654 -0.0476 -0.0969 -0.0998
    1W        W47264   9.423  29.286   2.155 -0.0675 -0.2843 -0.0158
    1W        W47265   7.716   3.207   7.424 -0.2606  0.1401  0.0112
    1W        W47266  10.820  22.314   8.201  0.3189  0.0580  0.0407
    1W        W47267   7.093  16.434   8.923  0.3045 -0.1651  0.2621
    1W        W47268   9.834  28.017   2.067  0.0521 -0.1731  0.0152
    1W        W47269  27.694   0.470   7.979  0.0551  0.3605 -0.1405
    1W        W47270  28.974  21.268   6.775 -0.0449 -0.4235  0.1020
    1W        W47271  17.975  22.558   2.990 -0.4053 -0.2675  0.3401
    1W        W47272  26.560   4.752   6.474  0.0114 -0.2494  0.0047
    1W        W47273  11.908  12.978   9.542 -0.0621  0.2934 -0.0495
    1W        W47274   0.105   9.783   9.053  0.0134  0.1282 -0.2097
    1W        W47275  21.636  10.207   1.989  0.2341  0.2927  0.2374
    1W        W47276  13.840  23.444   1.791  0.3186  0.2217 -0.0531
    1W        W47277  10.983  25.215   8.405 -0.1740 -0.2921  0.1245
    1W        W47278  20.436   5.753   7.502  0.0940 -0.5333  0.1079
    1W        W47279  19.161   5.021   9.610  0.0610 -0.2125 -0.1037
    1W        W47280  28.382   9.346   7.528  0.0840 -0.0698 -0.0495
    1W        W47281  13.591   2.646   9.272 -0.0408 -0.1338 -0.1469
    1W        W47282  16.325  25.073   2.396  0.0703  0.1592  0.1735
    1W        W47283  21.758  22.750   7.514  0.0536  0.3719 -0.0137
    1W        W47284  11.947   5.480   7.431  0.2625  0.1315  0.0620
    1W        W47285  19.001  15.390   0.725  0.3089  0.0388  0.2374
    1W        W47286   6.800   3.409   8.019  0.0377 -0.1842  0.0217
    1W        W47287   9.845  25.380   9.563 -0.1822  0.0874 -0.3719
    1W        W47288  20.051  11.185   8.409 -0.0706 -0.2001 -0.2151
    1W        W47289   7.054  22.290   0.707 -0.2404 -0.0187 -0.3833
    1W        W47290  14.105   4.283   1.558  0.2482  0.0208  0.1538
    1W        W47291  19.443  25.778   1.167  0.1073 -0.2685 -0.0910
    1W        W47292  21.711  20.096   1.030 -0.2649  0.4549  0.0868
    1W        W47293  22.730  12.581   7.134 -0.2771 -0.0230  0.1718
    1W        W47294  19.098  21.914   1.226 -0.2570 -0.2061  0.1861
    1W        W47295   3.683  15.276   8.309  0.2302 -0.1334  0.1449
    1W        W47296   6.270  16.034   7.595  0.1724 -0.0883 -0.0720
    1W        W47297   2.558  19.032   1.110  0.1789 -0.1960 -0.0283
    1W        W47298  25.112   3.117   7.418  0.0068 -0.0768 -0.0332
    1W        W47299   5.905   2.611   6.209  0.0284  0.0118 -0.2109
    1W        W47300   4.069   0.231   0.655  0.2035 -0.3598 -0.1039
    1W        W47301  19.692  14.446   2.056 -0.0906 -0.0582  0.2905
    1W        W47302  13.874   8.317   0.556  0.1921  0.1347  0.1765
    1W        W47303  27.111   6.070   0.644 -0.1090 -0.3087  0.2287
    1W        W47304  19.992  28.169   2.325  0.0710 -0.0586 -0.1082
    1W        W47305   9.127  26.502   8.789 -0.1352 -0.0432 -0.0850
    1W        W47306  27.829  28.264   7.962  0.0994  0.2926  0.0620
    1W        W47307   5.863  26.170   9.248 -0.2933 -0.1436  0.3544
    1W        W47308  22.111  10.124   9.624  0.1530  0.1803  0.0153
    1W        W47309   2.867  20.512   9.322 -0.2319  0.0517  0.1805
    1W        W47310  17.170  10.654   1.337  0.1620 -0.3360 -0.3054
    1W        W47311   4.777  20.703   7.806  0.2715 -0.1263  0.1060
    1W        W47312  18.143  19.857   8.822  0.2312  0.0478 -0.0094
    1W        W47313   3.851   9.484   8.640  0.2759  0.2089 -0.0442
    1W        W47314   3.035   7.652   7.860 -0.0986 -0.0080 -0.0680
    1W        W47315   5.934   5.745   7.153  0.1869 -0.0900 -0.1374
    1W        W47316   1.154  10.039   2.560 -0.0424 -0.3133 -0.1043
    1W        W47317   3.864   2.717   7.146  0.2639 -0.2488 -0.0107
    1W        W47318  28.829  20.712   1.826 -0.6021  0.0950  0.0628
    1W        W47319  26.739  12.149   0.822  0.0142 -0.0042 -0.0583
    1W        W47320  24.836  11.127   0.126  0.1249 -0.1059 -0.2061
    1W        W47321   8.350  24.173   2.004 -0.0347  0.1389  0.0035
    1W        W47322  23.025  26.850   6.152 -0.0778 -0.1595 -0.0789
    1W        W47323  21.130  29.043   8.853 -0.0719 -0.1055 -0.3076
    1W        W47324   3.038  20.099   9.581  0.0455  0.2732 -0.2822
    1W        W47325   9.579   8.195   1.271 -0.0604 -0.0322 -0.0010
    1W        W47326  11.789  10.421   1.492  0.0725 -0.1217 -0.0010
    1W        W47327  19.784  26.770   2.808  0.2514  0.1610  0.2132
    1W        W47328   5.367  17.016   9.190  0.0718 -0.2909 -0.2977
    1W        W47329  18.992   8.016   3.487 -0.3293 -0.0196 -0.0624
    1W        W47330   4.226   2.310   2.536 -0.0080 -0.1453  0.3337
    1W        W47331  14.580   0.988   0.225 -0.0965  0.0961 -0.0883
    1W        W47332  25.226  15.576   5.533  0.1682 -0.0218  0.2348
    1W        W47333  24.839   1.219   1.522 -0.1410 -0.0550 -0.2465
    1W        W47334  23.770  20.754   8.206 -0.0836 -0.0453  0.1808
    1W        W47335  14.221   3.119   6.801 -0.2506  0.4199 -0.1593
    1W        W47336  11.980  13.610   2.079  0.0060  0.4072 -0.1334
    1W        W47337   3.778  18.729   8.604  0.0323 -0.2974 -0.1759
    1W        W47338  22.810  12.046   6.894  0.0251  0.0444 -0.3294
    1W        W47339   0.630   2.462   9.168  0.1420 -0.0028 -0.2697
    1W        W47340   2.633  18.017   0.745  0.1107 -0.0148  0.2490
    1W        W47341   2.634  23.072   1.435 -0.3527 -0.1237  0.2130
    1W        W47342  20.727  17.243   2.478 -0.2071 -0.0245 -0.0449
    1W        W47343  21.061  16.371   9.121  0.1109 -0.0101 -0.0425
    1W        W47344  20.290  28.654   0.129 -0.0172 -0.1604 -0.1345
    1W        W47345   5.880  20.832   9.033 -0.0441 -0.3319 -0.2309
    1W        W47346  17.010  15.828   0.818  0.0076 -0.0472 -0.0687
    1W        W47347  18.232  12.914   7.368  0.1124  0.1322  0.4468
    1W        W47348  14.328   7.230   0.772  0.3562 -0.0104 -0.1387
    1W        W47349  18.030  24.201   0.025  0.1482  0.0034 -0.2040
    1W        W47350  14.898  11.205   1.183 -0.1556  0.2169 -0.0478
    1W        W47351   4.355   3.497   1.525 -0.2755 -0.3808  0.2670
    1W        W47352   2.662  18.488   9.678  0.0937 -0.2532  0.1439
    1W        W47353   8.916  10.618   7.570 -0.5056 -0.0488  0.0756
    1W        W47354   0.703  18.648   5.802  0.1369 -0.1613 -0.1840
    1W        W47355  23.852  24.685   8.858  0.0302  0.1403  0.1271
    1W        W47356   0.768  27.847   6.923  0.3656  0.0892 -0.0703
    1W        W47357  22.823  18.973   7.737  0.3685 -0.1986 -0.0712
    1W        W47358   3.828  21.447   5.979 -0.3157 -0.0164  0.0762
    1W        W47359  28.302  13.574   0.278  0.0514 -0.0562 -0.2285
    1W        W47360  28.339  16.706   6.303 -0.2218  0.2637  0.3701
    1W        W47361  12.144  13.861   1.663 -0.3027 -0.1621 -0.2392
    1W        W47362  11.629  14.866   2.375 -0.1424 -0.2240  0.2371
    1W        W47363  13.363  10.418   7.792  0.0685 -0.0991 -0.2074
    1W        W47364  17.638   3.837   2.738 -0.2417  0.2400  0.3064
    1W        W47365  11.070  24.705   8.256 -0.2717  0.1220  0.2535
    1W        W47366  29.114  17.746   7.946 -0.0840 -0.1245  0.1912
    1W        W47367  23.296  25.402   2.803 -0.1784  0.1575 -0.0623
    1W        W47368   7.552  19.751   9.481  0.0426 -0.0373  0.2792
    1W        W47369  18.930  16.442   7.827 -0.0485 -0.1807  0.1316
    1W        W47370   7.477  25.147   0.075 -0.0246 -0.0805 -0.1421
    1W        W47371  28.128   0.098   9.438  0.2367  0.5089 -0.0496
    1W        W47372  18.697  27.331   1.990 -0.0880  0.2098 -0.2240
    1W        W47373  21.558  26.523   9.674 -0.1156 -0.3276 -0.0059
    1W        W47374  29.342  21.330   8.160  0.1614  0.0287  0.0794
    1W        W47375  28.326  16.013   0.316 -0.1764 -0.3897  0.0083
    1W        W47376   9.797   1.422   0.772  0.0940 -0.1897  0.1163
    1W        W47377  22.907  21.366   6.961 -0.1563  0.1096  0.2438
    1W        W47378  17.662  18.094   8.807  0.2629  0.0231  0.2217
    1W        W47379  21.825   5.125   2.408  0.3077  0.0430 -0.0467
    1W        W47380   4.246   0.696   9.625  0.3783 -0.0940 -0.2161
    1W        W47381   8.737   7.200   2.645  0.1622  0.3003  0.0748
    1W        W47382  10.344   0.572   9.486  0.0297 -0.0386  0.1535
    1W        W47383  20.379  17.445   2.876 -0.1597 -0.2535  0.0348
    1W        W47384  15.007  19.224   8.223 -0.0564 -0.1088  0.1154
    1W        W47385   6.808  28.075   0.585 -0.0580  0.0075  0.1333
    1W        W47386  10.711  16.429   8.306 -0.1074  0.0437 -0.1375
    1W        W47387  21.899  19.576   2.605 -0.0782  0.0896  0.0692
    1W        W47388  20.040  27.532   7.713  0.1414 -0.2075  0.2977
    1W        W47389  28.879  11.463   0.633  0.2537 -0.1430  0.0436
    1W        W47390   5.883  28.922   1.492  0.2717  0.0640 -0.1699
    1W        W47391  10.722  10.996   0.437 -0.2128 -0.2328 -0.1107
    1W        W47392   5.095   8.014   9.551 -0.0871  0.1907 -0.1178
    1W        W47393  24.906  16.585   6.958  0.2702 -0.1079  0.0001
    1W        W47394   4.318  24.064   6.968 -0.0466 -0.1096 -0.0271
    1W        W47395   7.025   3.141   9.370 -0.3131  0.0248 -0.1269
    1W        W47396   2.035   1.789   7.397  0.1253  0.1203 -0.0097
    1W        W47397   3.283   7.984   1.898  0.0954  0.3267 -0.0064
    1W        W47398  24.163  10.580   2.322  0.0103  0.0940  0.1796
    1W        W47399  28.181  11.458   2.100 -0.0460  0.3788  0.1189
    1W        W47400   8.956  21.332   7.731  0.2294  0.0750  0.0139
    1W        W47401  19.627  11.757   2.035  0.3716 -0.0938 -0.0080
    1W        W47402   2.200   0.526   6.814 -0.0326 -0.1651  0.1700
    1W        W47403  12.285  28.813   0.246  0.0448  0.0402  0.1093
    1W        W47404   0.355  23.451   6.835  0.0811 -0.1463  0.0039
    1W        W47405  23.435   1.767   0.235  0.2931  0.0335 -0.0056
    1W        W47406  24.131  26.317   1.550 -0.2984  0.3851  0.2924
    1W        W47407  28.700  11.415   7.168 -0.3176  0.2452  0.0182
    1W        W47408  13.909   8.310   1.465  0.1444  0.0599  0.0137
    1W        W47409   8.053  21.890   5.802 -0.1272 -0.0178 -0.1424
    1W        W47410  26.428  11.222   5.900 -0.1119  0.0117  0.1624
    1W        W47411   7.062   9.610   9.436  0.1047  0.0744 -0.1000
    1W        W47412   4.524  10.588   8.553  0.1543  0.2161  0.1613
    1W        W47413  23.374   4.150   9.662 -0.1689 -0.4079 -0.0260
    1W        W47414   9.092  16.103   7.906  0.0845 -0.1936 -0.4817
    1W        W47415  15.008  21.351   0.026 -0.2081 -0.1234  0.0548
    1W        W47416  13.488   8.878   2.726  0.2350  0.1398 -0.1602
    1W        W47417   7.425   3.104   2.657  0.0715 -0.0454 -0.3027
    1W        W47418  24.960   1.033   2.832 -0.2222 -0.0420  0.0269
    1W        W47419  14.424   8.772   9.444 -0.0076 -0.1849 -0.0000
    1W        W47420   7.952   5.518   3.729  0.2051 -0.2838  0.0895
    1W        W47421  11.254  25.614   2.180 -0.0853  0.1804 -0.1174
    1W        W47422  23.455   0.227   7.527  0.1633 -0.2946  0.0191
    1W        W47423  15.232   8.672   8.981  0.3003 -0.0134  0.0976
    1W        W47424  20.571   7.493   9.271 -0.1502 -0.0036 -0.2726
    1W        W47425   6.250  14.065   8.055  0.0485  0.1452 -0.1460
    1W        W47426  18.323  11.445   8.769 -0.2309  0.1126 -0.0813
    1W        W47427  24.772  20.085   8.501 -0.1365  0.0818  0.2515
    1W        W47428   9.930  15.537   1.113  0.1028  0.0042 -0.1406
    1W        W47429  16.569   2.609   8.531  0.0907 -0.1669 -0.4061
    1W        W47430   4.568  23.006   0.347  0.0416  0.1555 -0.0369
    1W        W47431  14.767  22.611   9.345 -0.1122 -0.1582  0.0948
    1W        W47432   8.141  11.417   7.438 -0.2777  0.0745 -0.0343
    1W        W47433  28.389  11.165   0.526 -0.2312 -0.2453  0.1445
    1W        W47434  23.227  19.733   7.704 -0.3065  0.1891 -0.2954
    1W        W47435   9.027  10.910   8.043 -0.0612  0.1274  0.1354
    1W        W47436  24.819   8.044   1.754 -0.2975 -0.3742  0.3037
    1W        W47437  24.973  29.312   8.486 -0.0555  0.0123 -0.2219
    1W        W47438  24.242   5.624   9.077 -0.0164 -0.1452  0.2349
    1W        W47439  12.746  24.197   1.733  0.3559  0.1810 -0.1040
    1W        W47440   9.106  19.618   8.107 -0.0309  0.1552  0.1523
    1W        W47441  12.342  13.604   9.060 -0.1144 -0.2738  0.1986
    1W        W47442  16.168  27.333   8.479 -0.1753 -0.0032 -0.0311
    1W        W47443   8.191  21.252   0.215 -0.2011  0.1919  0.0949
    1W        W47444   1.934   7.497   7.580 -0.1181  0.0721  0.2191
    1W        W47445   8.022  20.352   1.410 -0.0979 -0.4033  0.0299
    1W        W47446  10.036  19.513   8.943  0.0628 -0.1008 -0.0021
    1W        W47447  20.577   5.678   0.228  0.1384 -0.0694  0.1222
    1W        W47448  20.145   0.962   8.289 -0.0273  0.1603 -0.0759
    1W        W47449  10.350   8.376   2.981  0.0414 -0.0033  0.0721
    1W        W47450  26.509  26.617   8.493  0.0582  0.2450 -0.1330
    1W        W47451  20.526  24.573   7.780 -0.0154 -0.3482  0.1081
    1W        W47452   2.096  18.750   1.181 -0.2560  0.3275  0.0665
    1W        W47453   0.271   3.529   8.230 -0.0565 -0.0245  0.1326
    1W        W47454  15.106  25.584   1.714  0.2664 -0.1738 -0.0597
    1W        W47455  24.451  29.068   0.395 -0.3487  0.0293  0.2167
    1W        W47456  24.952  12.319   0.822 -0.1018 -0.2017  0.0037
    1W        W47457   2.739  15.970   7.321 -0.1049 -0.1653  0.1011
    1W        W47458  10.281   0.786   2.721 -0.1747 -0.3005  0.1370
    1W        W47459   1.138  20.013   1.475 -0.0506  0.0445 -0.0281
    1W        W47460  24.847   2.090   2.660  0.3937  0.1677  0.2961
    1W        W47461   6.473   8.433   0.965  0.1166  0.0765  0.2741
    1W        W47462  23.917   9.451   6.942  0.0826 -0.0806  0.2289
    1W        W47463  19.204   1.687   2.352 -0.1715 -0.3591  0.0531
    1W        W47464  18.748   5.354   8.247 -0.0599 -0.2439  0.2753
    1W        W47465   5.395  15.013   1.528  0.1251 -0.1555  0.0148
    1W        W47466  12.377   0.547   0.058 -0.0411 -0.3484  0.0048
    1W        W47467  22.674  27.011   2.308 -0.1250 -0.0137  0.1910
    1W        W47468  27.091  18.859   0.676  0.0570  0.0562  0.1718
    1W        W47469  22.381  23.698   1.773  0.0411  0.2984  0.1781
    1W        W47470  22.890   7.743   8.049  0.6347 -0.0195  0.1953
    1W        W47471  25.854   1.510   0.173  0.0006 -0.5153 -0.3752
    1W        W47472  28.602  12.785   7.663  0.1319  0.0702 -0.1315
    1W        W47473   6.153  20.157   8.343  0.1769  0.0944  0.2236
    1W        W47474  26.039  20.586   0.153  0.0505 -0.2280 -0.3301
    1W        W47475  27.551  13.450   7.572 -0.0494  0.1098  0.1394
    1W        W47476   9.627  25.288   7.442  0.1113 -0.1126  0.2141
    1W        W47477   6.487   0.315   1.014 -0.0251 -0.3221  0.4889
    1W        W47478   9.315   5.673   8.200 -0.0328  0.2773  0.3287
    1W        W47479  12.973   0.823   0.984  0.1726  0.0189 -0.2550
    1W        W47480   6.809  11.765   8.551  0.1283  0.3226  0.2765
    1W        W47481  17.479   2.120   0.068  0.0333  0.2266  0.0119
    1W        W47482   1.459   0.196   0.879 -0.4321  0.1351  0.1898
    1W        W47483  22.651  18.131   7.486 -0.0951 -0.1578 -0.2642
    1W        W47484  27.143  22.272   7.894 -0.0208  0.0952  0.2278
    1W        W47485  21.075  15.504   1.600  0.0822  0.2112  0.1109
    1W        W47486  17.856  27.909   7.713  0.1827  0.0722  0.3290
    1W        W47487  18.756  10.758   7.728 -0.0319  0.1284 -0.0570
    1W        W47488  10.902  26.504   6.943  0.0781 -0.1743  0.1897
    1W        W47489  28.534  20.287   9.000  0.3102  0.1770  0.0162
    1W        W47490   5.146  18.695   7.469 -0.0288 -0.4222  0.0605
    1W        W47491  28.606  21.752   8.835  0.1287 -0.1743  0.0279
    1W        W47492  16.370  15.941   7.899  0.2618  0.0527  0.0521
    1W        W47493   3.827  25.803   9.145  0.3965  0.0303 -0.4678
    1W        W47494   3.969   7.765   1.292 -0.2833 -0.1805  0.3329
    1W        W47495  24.710  14.189   6.064  0.1819 -0.1373 -0.1401
    1W        W47496   3.105  16.946   8.702 -0.2988  0.3641 -0.3412
    1W        W47497  24.664  16.038   6.924  0.2487 -0.1240 -0.1853
    1W        W47498   6.036  24.561   6.283  0.0489  0.1840 -0.0364
    1W        W47499  10.149  24.915   0.731  0.0609 -0.1761  0.0574
    1W        W47500  10.452  21.482   7.584  0.1093  0.1557 -0.2032
    1W        W47501  17.193  26.381   1.124 -0.1934 -0.2890  0.0666
    1W        W47502   2.957  22.609   0.184 -0.2342 -0.1114 -0.2236
    1W        W47503  19.521   4.695   7.490 -0.0493  0.1125 -0.1036
    1W        W47504  20.979  18.081   1.952 -0.1243 -0.2767 -0.0242
    1W        W47505  28.793  29.337   7.651 -0.0486  0.2480 -0.1084
    1W        W47506  20.891  26.510   1.938  0.1726 -0.0803 -0.1118
    1W        W47507  12.110   5.585   6.991  0.1065  0.3177  0.1084
    1W        W47508  24.149   9.540   1.473 -0.2523 -0.2287 -0.0748
    1W        W47509   4.155  15.076   7.310  0.0448 -0.0961  0.3240
    1W        W47510  17.633  10.724   9.547 -0.3956  0.4218  0.0589
    1W        W47511   9.586  27.148   2.272  0.0852 -0.1434 -0.0835
    1W        W47512   0.642  19.225   2.254  0.2049 -0.0329 -0.4440
    1W        W47513  18.187  20.272   9.254  0.2410  0.0230  0.1809
    1W        W47514   0.138   8.045   0.086 -0.2967 -0.3215 -0.0060
    1W        W47515  17.266  29.134   2.340 -0.0500 -0.0970 -0.3176
    1W        W47516   9.193   5.845   7.526  0.0472 -0.0168  0.1053
    1W        W47517   8.155  10.692   2.719 -0.0860  0.0143  0.1668
    1W        W47518  17.086  29.305   8.622  0.0907 -0.0528  0.0505
    1W        W47519   5.465  18.659   8.493  0.1201  0.3749 -0.1204
    1W        W47520  18.382  22.814   8.712  0.3149 -0.0881  0.0221
    1W        W47521  12.807  22.280   8.480  0.2628 -0.0499 -0.0994
    1W        W47522  28.790   8.028   7.915 -0.2685 -0.1156  0.0880
    1W        W47523  27.971  25.037   9.344 -0.3526  0.3031  0.2641
    1W        W47524  16.863   8.322   9.651 -0.0086 -0.1218  0.2515
    1W        W47525   1.665   1.736   4.114 -0.0379 -0.0053  0.0773
    1W        W47526  13.875   8.685   1.807  0.0824  0.3392  0.2608
    1W        W47527  27.015  23.058   9.513  0.1462 -0.1311 -0.1079
    1W        W47528   5.430  27.753   2.864 -0.3486  0.1546 -0.0395
    1W        W47529   4.842  12.266   6.007 -0.1332  0.1137  0.0480
    1W        W47530  17.638  17.279   1.258  0.0402  0.0028  0.1873
    1W        W47531   9.967   6.946   0.770 -0.0790 -0.2385  0.1498
    1W        W47532  28.148  17.622   0.317 -0.4033 -0.0606 -0.2906
    1W        W47533  18.812  22.274   0.626 -0.0590 -0.1296  0.0802
    1W        W47534  26.297  15.280   5.859 -0.0561 -0.1000  0.1176
    1W        W47535  23.988  14.974   8.800 -0.1651 -0.3148 -0.0623
    1W        W47536  22.217  27.025   8.783  0.0762 -0.3379  0.0140
    1W        W47537   9.388  14.120   7.617 -0.0900  0.3047 -0.0472
    1W        W47538  13.778  19.129   8.712  0.1390 -0.0861  0.0240
    1W        W47539  26.529  18.266   1.731  0.0568  0.2295  0.0575
    1W        W47540  26.925   6.062   7.759  0.0694  0.4532 -0.3461
    1W        W47541  29.121  28.467   7.461  0.2508  0.1114 -0.1169
    1W        W47542  14.432  16.838   2.936 -0.2628 -0.2463  0.1312
    1W        W47543  15.908  12.364   9.603 -0.3586 -0.1046  0.1752
    1W        W47544  17.090   2.954   2.880 -0.1881 -0.2060  0.2832
    1W        W47545   2.042  11.155   0.212  0.0528 -0.0179  0.1975
    1W        W47546   3.744   0.395   2.021 -0.1136 -0.0928  0.1050
    1W        W47547   4.423  15.796   9.116  0.0680  0.0041 -0.0379
    1W        W47548   4.748   4.046   2.058 -0.4497  0.0488 -0.1607
    1W        W47549  24.264  23.037   9.007  0.0685 -0.2713  0.1324
    1W        W47550  14.846  16.818   9.520  0.1504 -0.1714  0.0980
    1W        W47551   0.260  23.444   7.579 -0.0707 -0.1182 -0.2846
    1W        W47552  17.407   3.885   9.236  0.1786  0.0110 -0.0980
    1W        W47553   6.767  23.448   7.239  0.0326  0.3046 -0.3349
    1W        W47554   8.341  11.855   6.632 -0.0154 -0.0361 -0.3026
    1W        W47555  19.139  26.254   1.801  0.0477 -0.1951 -0.1066
    1W        W47556  21.460  12.880   1.518  0.0567 -0.0588 -0.4128
    1W        W47557  12.532   2.663   7.839  0.1573 -0.0759 -0.1497
    1W        W47558   4.691  29.324   0.361  0.1078 -0.0730  0.1147
    1W        W47559  19.324   1.460   1.453  0.0444 -0.0450 -0.0505
    1W        W47560   1.305  25.434   8.844  0.3850  0.0309 -0.3213
    1W        W47561  27.399  22.675   9.167  0.0349 -0.0620 -0.2273
    1W        W47562   5.453  23.161   0.770  0.0666 -0.0364  0.0668
    1W        W47563  27.085   0.230   0.722 -0.3683  0.0324 -0.3346
    1W        W47564  16.428  20.688   1.091 -0.2693  0.0863 -0.3098
    1W        W47565  24.230  23.906   0.450 -0.0347 -0.2061  0.0126
    1W        W47566  24.567   0.506   1.602  0.2819  0.0597  0.2942
    1W        W47567   7.587  24.434   8.608  0.2614  0.2814  0.3706
    1W        W47568  18.585   5.914   0.140  0.2620  0.1211 -0.0594
    1W        W47569  17.076  24.412   1.368 -0.1592  0.0408  0.0914
    1W        W47570   1.869  24.624   7.871  0.3931 -0.1294 -0.0076
    1W        W47571  12.204   1.850   2.207  0.0300 -0.1963 -0.3206
    1W        W47572  10.186  20.351   9.645  0.2045  0.0881  0.0075
    1W        W47573  28.374  14.681   9.228  0.2590 -0.0814  0.2542
    1W        W47574  25.550  13.390   8.911 -0.0746  0.1849  0.2216
    1W        W47575  19.342  23.663   2.565  0.0779  0.0877  0.3011
    1W        W47576   4.410   2.354   7.660 -0.1391 -0.0257 -0.3310
    1W        W47577   9.763  26.398   9.290  0.1269  0.0296 -0.2597
    1W        W47578  28.738  26.360   1.276  0.0351 -0.2232 -0.1075
    1W        W47579  19.837  20.543   0.910 -0.0826  0.0870  0.3461
    1W        W47580  24.188  20.737   9.536  0.0540  0.1833  0.0649
    1W        W47581   9.312  18.127   2.011 -0.3522 -0.2141 -0.0309
    1W        W47582  23.162   4.306   7.304  0.1354 -0.1222  0.0071
    1W        W47583  25.850   9.544   9.507  0.0419 -0.0972 -0.2247
    1W        W47584  21.401  27.986   8.020  0.2192 -0.0198  0.1891
    1W        W47585   1.235  29.286   1.739 -0.0790 -0.2187 -0.2702
    1W        W47586  20.067  27.007   9.437 -0.2514 -0.0175 -0.4933
    1W        W47587  11.668  23.715   8.486 -0.0014 -0.1256  0.3559
    1W        W47588  21.512  22.552   2.595 -0.0464 -0.0558 -0.3393
    1W        W47589  25.745   7.108   8.964 -0.0355 -0.3108  0.2586
    1W        W47590  28.793   0.957   7.535  0.1754  0.3509  0.0849
    1W        W47591   9.151   9.035   0.703 -0.0769 -0.2650 -0.1262
    1W        W47592  22.798   8.218   6.984  0.2433 -0.4292 -0.2202
    1W        W47593  24.885  14.811   8.812  0.2157 -0.2520 -0.0524
    1W        W47594  17.891  28.777   3.017 -0.1845  0.0569  0.0698
    1W        W47595  18.622   6.084   3.001  0.0923 -0.0181 -0.0422
    1W        W47596   0.428  13.122   1.259 -0.0083  0.1708  0.2200
    1W        W47597   3.326   4.121   0.893 -0.0664 -0.0233 -0.3306
    1W        W47598   9.387  11.675   0.428 -0.1078 -0.2043 -0.0197
    1W        W47599   0.666  22.988   6.781 -0.0072 -0.0322  0.0119
    1W        W47600  27.443  21.357   0.066  0.1167  0.1278 -0.1874
    1W        W47601  27.733   9.275   2.428  0.4758  0.0951 -0.1591
    1W        W47602  16.493  23.797   2.645  0.3519  0.2528 -0.0960
    1W        W47603  26.074   4.147   0.736 -0.1246 -0.0088 -0.0852
    1W        W47604  25.344  14.502   5.454 -0.1089 -0.2311  0.1652
    1W        W47605  28.286  10.645   2.431 -0.2252  0.2803  0.1688
    1W        W47606  19.582  29.290   8.156 -0.0016 -0.4287 -0.0535
    1W        W47607   0.980   2.094   7.371 -0.1739 -0.1628  0.0961
    1W        W47608  28.373   6.416   6.075  0.1588 -0.2610 -0.2840
    1W        W47609  12.292  26.634   1.576  0.0701  0.1107 -0.0061
    1W        W47610  11.831  24.241   0.791 -0.0519  0.1291 -0.0074
    1W        W47611  22.577   5.313   9.324  0.1534  0.1367  0.2332
    1W        W47612   4.013  11.641   9.156  0.1138  0.0784 -0.1554
    1W        W47613   3.730  24.421   7.003  0.1581 -0.1044 -0.1468
    1W        W47614  22.794  12.499   6.128  0.1595  0.3532  0.0479
    1W        W47615  12.102  23.935   8.233 -0.2455  0.2571  0.1239
    1W        W47616   6.971  20.581   6.317  0.3338  0.1069  0.0236
    1W        W47617  13.505   0.301   2.442 -0.2842 -0.0840 -0.0469
    1W        W47618   4.820  11.729   2.713 -0.1892  0.2083 -0.0607
    1W        W47619   6.007   7.394   6.700 -0.0445  0.1182 -0.0517
    1W        W47620   3.176  13.035   7.338 -0.0373  0.0923 -0.0517
    1W        W47621  17.549   7.659   2.673  0.2356 -0.2183  0.1958
    1W        W47622   2.651  17.934   8.415  0.3368  0.2900 -0.0416
    1W        W47623  16.725  19.245   1.185 -0.0033  0.1422  0.1737
    1W        W47624   2.800  28.009   3.434  0.3337 -0.1483 -0.0763
    1W        W47625  17.423  12.993   1.192 -0.3008 -0.0991  0.1295
    1W        W47626   0.219  26.403   9.657 -0.3310 -0.0789  0.1035
    1W        W47627  21.638  13.598   1.060  0.0315  0.3682  0.3370
    1W        W47628  18.656  16.480   2.012 -0.2763 -0.1854 -0.4109
    1W        W47629  14.404  28.793   2.043 -0.4000 -0.4033 -0.1203
    1W        W47630   0.441   1.463   6.998 -0.1754  0.3235  0.0448
    1W        W47631  19.441  14.052   2.277 -0.2078 -0.2469  0.1896
    1W        W47632  13.946   6.949   7.778 -0.2863  0.1623  0.0194
    1W        W47633  15.579  12.697   1.977 -0.0324  0.0969  0.1843
    1W        W47634  17.794  25.611   0.135  0.0181 -0.1183 -0.6013
    1W        W47635   1.222  27.962   7.200 -0.3741  0.2513 -0.0126
    1W        W47636  23.596   1.541   7.219 -0.1736 -0.4123 -0.0137
    1W        W47637  11.790  17.259   7.275  0.1850  0.0651  0.1416
    1W        W47638  24.670   5.736   2.708  0.3303 -0.0289  0.3944
    1W        W47639  16.982   1.676   9.292  0.3608 -0.1836  0.4516
    1W        W47640  25.906   0.688   9.445 -0.0334  0.1508  0.0212
    1W        W47641  19.690   2.375   7.910  0.0580  0.0697 -0.0559
    1W        W47642   1.405  22.234   2.117  0.3857 -0.1765  0.1763
    1W        W47643  21.552  21.375   7.087 -0.1458  0.1141  0.1607
    1W        W47644   8.361   8.363   8.602 -0.1609  0.3898 -0.1336
    1W        W47645  17.562   8.438   1.929  0.0645 -0.0764  0.1380
    1W        W47646   9.843  23.929   9.126 -0.0528  0.1650  0.0890
    1W        W47647  15.666  25.456   9.391  0.0403 -0.1012 -0.2767
    1W        W47648   1.374  21.312   7.283 -0.2401 -0.3000  0.0843
    1W        W47649  10.073  25.494   0.782  0.0250  0.0459 -0.1170
    1W        W47650  11.846  12.750   0.356  0.0648  0.1227  0.2599
    1W        W47651  23.587   8.710   8.523  0.0548  0.0378  0.0996
    1W        W47652   2.215  16.056   7.412  0.1817 -0.0597 -0.2097
    1W        W47653  18.795   2.402   0.612  0.0746  0.0482 -0.0977
    1W        W47654  14.448  25.009   1.454 -0.0940 -0.0083 -0.0224
    1W        W47655  19.479   7.857   3.375  0.0191 -0.0007  0.0123
    1W        W47656   4.519  19.565   9.469  0.0047 -0.1928  0.2893
    1W        W47657  23.773   4.979   8.079 -0.0767 -0.0568 -0.0654
    1W        W47658   6.905  11.896   7.473 -0.1016  0.2622 -0.1628
    1W        W47659  10.836   3.206   8.996 -0.0879 -0.0348  0.1235
    1W        W47660   1.812  24.330   6.899  0.1409  0.2867 -0.1539
    1W        W47661  21.830  20.391   8.937 -0.1374 -0.3763  0.0762
    1W        W47662  13.184   4.183   2.131  0.2989 -0.0657 -0.0375
    1W        W47663   5.635  28.044   1.316 -0.2499 -0.0338 -0.3451
    1W        W47664  21.316  28.350   6.664  0.0752  0.3350 -0.2131
    1W        W47665  29.200   9.193   1.532 -0.0266  0.0869 -0.3142
    1W        W47666   7.316   5.046   3.613 -0.0237 -0.1417  0.2524
    1W        W47667  21.583  19.223   8.824  0.1022  0.1347 -0.2880
    1W        W47668  24.180  10.540   9.049 -0.3173 -0.0146  0.2424
    1W        W47669   5.372  15.010   6.562 -0.1827 -0.0797  0.0910
    1W        W47670  26.257   4.773   2.402 -0.1179  0.3188  0.1017
    1W        W47671  21.116  15.249   8.233  0.1641 -0.1486  0.0499
    1W        W47672   5.165  23.126   1.755 -0.4289  0.3740  0.2158
    1W        W47673   4.039  14.594   7.471 -0.2343  0.1107 -0.2188
    1W        W47674  19.864   7.628   7.691 -0.1079 -0.1757 -0.2133
    1W        W47675  27.414  13.866   6.938 -0.0974  0.3178 -0.0045
    1W        W47676  19.268  27.019   4.054  0.0401 -0.1356 -0.3485
    1W        W47677  19.602  22.801   7.202 -0.0063 -0.0907 -0.3163
    1W        W47678   6.998   4.281   2.381  0.2312 -0.1089  0.0746
    1W        W47679  22.604  20.210   1.826  0.2239 -0.3896 -0.3434
    1W        W47680  22.273  19.940   0.726 -0.1345  0.2781 -0.4012
    1W        W47681  16.384  26.821   7.790  0.2466  0.1054 -0.0573
    1W        W47682  12.260   7.032   3.024 -0.0597 -0.2718  0.3225
    1W        W47683  22.029   5.556   0.865  0.0387  0.2438 -0.0576
    1W        W47684  12.188  21.101   8.724 -0.0941 -0.1464 -0.2016
    1W        W47685  10.255  14.102   1.088 -0.2522  0.3258  0.0800
    1W        W47686   1.907   1.430   1.557  0.1007 -0.1757 -0.2654
    1W        W47687  16.128   8.581   7.384  0.1814 -0.0876  0.0341
    1W        W47688  29.304   5.783   6.811  0.1031  0.2074  0.0252
    1W        W47689  28.619   9.302   2.634  0.0924  0.0661  0.0433
    1W        W47690   1.251  28.299   8.492 -0.2936 -0.0090 -0.0309
    1W        W47691   9.219  19.207   7.503  0.1773 -0.0698 -0.1941
    1W        W47692  13.037  22.050   8.944 -0.4233  0.2641 -0.3909
    1W        W47693  23.693  18.577   8.455  0.2234 -0.1043  0.2897
    1W        W47694  23.858  24.699   6.233  0.1582  0.4536 -0.0590
    1W        W47695  27.428   4.717   6.645 -0.1536  0.1097 -0.1630
    1W        W47696  23.943  17.944   1.506  0.1387 -0.1062  0.0535
    1W        W47697   7.348   2.168   7.628  0.2580 -0.0155  0.1643
    1W        W47698   2.326  15.600   7.118 -0.1200  0.0106  0.1194
    1W        W47699   0.525   8.087   6.850 -0.1012  0.2417  0.0162
    1W        W47700  25.631  15.036   7.262 -0.2501  0.1062  0.1286
    1W        W47701   9.487   9.030   8.962  0.0093  0.0384  0.0380
    1W        W47702  21.470   9.582   8.939 -0.0605  0.1115  0.3410
    1W        W47703   9.767  25.412   9.050  0.1193 -0.0883 -0.3420
    1W        W47704  23.501  21.043   7.506 -0.4296 -0.2062 -0.0356
    1W        W47705  16.713   4.628   7.488  0.1313  0.1962 -0.1332
    1W        W47706  14.205  18.465   8.867  0.1337  0.0362 -0.0942
    1W        W47707  22.668   0.505   8.684 -0.4237  0.1212 -0.1843
    1W        W47708   0.849   2.268   9.596 -0.0525  0.1097 -0.0161
    1W        W47709  20.900  17.250   7.740 -0.0998 -0.0069  0.0922
    1W        W47710   8.706  24.850   8.699 -0.2636 -0.0413 -0.1970
    1W        W47711  20.927  19.114   7.622  0.0231  0.1282  0.0279
    1W        W47712  28.358  20.913   7.081  0.0146 -0.0651 -0.0481
    1W        W47713  27.134   6.166   8.262 -0.0593 -0.1000  0.2643
    1W        W47714   6.491  26.661   8.907  0.2346  0.1181  0.0637
    1W        W47715  14.542  18.059   8.005 -0.4097 -0.3588  0.1032
    1W        W47716  12.783  28.057   2.139  0.1563 -0.1836 -0.1276
    1W        W47717  28.656   6.426   2.022 -0.0819 -0.0920 -0.4164
    1W        W47718   5.518  20.989   1.095  0.1278  0.1284  0.1305
    1W        W47719   1.950  15.818   7.785  0.1278 -0.1524 -0.1014
    1W        W47720  13.202  20.954   0.730 -0.1777  0.0517  0.1869
    1W        W47721   3.781  14.507   2.200 -0.0117 -0.2885 -0.2003
    1W        W47722  20.079  15.168   8.155 -0.1752  0.2286  0.1215
    1W        W47723  15.892  27.889   0.514 -0.1029 -0.0618 -0.1951
    1W        W47724  10.343  21.147   1.117  0.2689  0.1885 -0.1972
    1W        W47725  14.300   9.150   7.795 -0.1933  0.1484 -0.0866
    1W        W47726  26.667   7.831   6.932  0.0537  0.0430 -0.0523
    1W        W47727  11.062  20.106   0.849 -0.3600 -0.2539  0.0440
    1W        W47728  24.393  16.713   9.011  0.1534 -0.0697  0.1992
    1W        W47729   4.572   7.270   9.563  0.0576 -0.0171 -0.0445
    1W        W47730  24.390  23.670   3.404 -0.0901 -0.0977  0.0111
    1W        W47731  18.166  18.365   0.876 -0.0227  0.1785 -0.0048
    1W        W47732  23.044   0.639   6.928 -0.0302  0.0893  0.1336
    1W        W47733  20.567   0.120   9.222  0.1188  0.0979 -0.1495
    1W        W47734  23.419  26.158   8.891  0.1033  0.0950 -0.3265
    1W        W47735  13.151  14.837   0.373  0.2010 -0.0874 -0.0399
    1W        W47736  13.066   1.174   3.358 -0.1140 -0.3437  0.0474
    1W        W47737  17.857   7.308   9.058 -0.2523 -0.1422 -0.0911
    1W        W47738   4.048  21.872   7.309  0.1819 -0.2756 -0.0596
    1W        W47739  25.168  21.701   7.024  0.5152 -0.2515  0.1507
    1W        W47740   1.549   2.892   8.993 -0.1520  0.1104 -0.1717
    1W        W47741  25.579  27.807   0.764 -0.0404 -0.4164  0.0430
    1W        W47742   3.276  18.493   9.687  0.0398 -0.1854  0.2054
    1W        W47743  17.269   9.933   8.999  0.1973  0.0122  0.0598
    1W        W47744  19.233  21.574   0.030 -0.0554  0.0967  0.2203
    1W        W47745  10.455   1.261   8.564  0.0005  0.1424 -0.2685
    1W        W47746  22.161  19.156   0.135  0.2925  0.5976 -0.0798
    1W        W47747  14.748   4.182   0.377  0.1863  0.0918 -0.5162
    1W        W47748  13.509  26.569   1.059  0.1028  0.1051 -0.0891
    1W        W47749   6.790  22.190   9.235 -0.1240 -0.0828  0.2022
    1W        W47750  15.643  21.105   1.036 -0.0277 -0.0529  0.0014
    1W        W47751  29.131  14.497   6.682 -0.0447  0.0266 -0.0627
    1W        W47752  19.495  10.759   9.195  0.0369 -0.4900  0.2701
    1W        W47753  15.637  10.876   0.992  0.0719  0.0157  0.0883
    1W        W47754   8.462  20.861   0.596  0.0410 -0.3449  0.0100
    1W        W47755  17.667   3.890   8.797  0.2389  0.4748  0.5276
    1W        W47756   0.302   9.298   9.190  0.0356  0.0338  0.3871
    1W        W47757  14.775   4.528   1.171 -0.0075  0.3379  0.1059
    1W        W47758   4.448   6.998   0.285 -0.3309 -0.0948  0.0865
    1W        W47759  17.033  19.002   3.436 -0.0498 -0.5874  0.1083
    1W        W47760  15.959   1.515   3.618 -0.2979  0.1097  0.1676
    1W        W47761  22.309  15.726   9.179 -0.0789 -0.1460  0.3520
    1W        W47762  16.214  12.700   7.438  0.1634  0.1447  0.2223
    1W        W47763  17.629  12.345   9.085 -0.2009  0.0047  0.0700
    1W        W47764  23.634   6.484   2.121 -0.1856 -0.0992 -0.3570
    1W        W47765   3.562  24.827   2.017 -0.0631  0.1375 -0.0490
    1W        W47766  18.211   0.367   2.043 -0.0512  0.2174 -0.1115
    1W        W47767  21.469  28.999   0.444 -0.2350 -0.3153 -0.0906
    1W        W47768  26.137   6.245   0.374 -0.2553  0.0297 -0.2454
    1W        W47769  12.909   9.336   1.005 -0.1698  0.1214 -0.1257
    1W        W47770  29.107  27.097   6.920 -0.0932 -0.0415 -0.0303
    1W        W47771  24.222  12.961   7.525 -0.0707  0.0520  0.0167
    1W        W47772   4.381  24.740   7.469  0.0197  0.1190  0.0583
    1W        W47773   9.986   1.171   8.815 -0.3744 -0.5005 -0.0514
    1W        W47774   1.242  11.756   3.231  0.1499 -0.0393 -0.0641
    1W        W47775  21.377  27.911   3.373  0.1277 -0.0312  0.1171
    1W        W47776   4.681  27.791   8.316  0.0356  0.0704  0.2583
    1W        W47777   2.204   4.119   6.646 -0.0588  0.2170 -0.1587
    1W        W47778  17.371  10.670   1.803  0.0711  0.0131  0.1687
    1W        W47779  14.839  26.040   9.541 -0.1466 -0.0582 -0.0289
    1W        W47780   8.844  21.956   7.010  0.0818 -0.0752  0.4064
    1W        W47781   1.350  22.943   9.645  0.1869  0.1656 -0.3317
    1W        W47782  26.383  14.522   9.094  0.0849 -0.0728 -0.2481
    1W        W47783  11.024  20.546   7.987 -0.1280 -0.2678  0.1427
    1W        W47784  14.657   4.933   1.423 -0.2256  0.2071 -0.0134
    1W        W47785   1.484   3.556   9.398 -0.2901 -0.1903  0.2206
    1W        W47786   2.430  24.741   1.941  0.0386 -0.1282 -0.1376
    1W        W47787  10.460  14.858   7.802  0.3111 -0.0813 -0.0145
    1W        W47788   2.056  16.075   1.538 -0.0261  0.0016  0.0326
    1W        W47789  15.404   6.918   7.462  0.0456  0.1827 -0.0791
    1W        W47790   2.996   0.019   2.450  0.1041  0.1470  0.0764
    1W        W47791   8.394   0.386   8.195 -0.0133 -0.1208  0.1906
    1W        W47792   1.509  28.006   8.840 -0.1488 -0.1704 -0.3260
    1W        W47793  22.639  24.607   7.997  0.1980 -0.1558 -0.0498
    1W        W47794  27.459   8.516   9.651  0.1660 -0.0853 -0.2414
    1W        W47795  18.992  11.025   7.283 -0.0471 -0.1842 -0.1480
    1W        W47796  28.357  22.780   9.581  0.2919  0.0411 -0.1740
    1W        W47797  24.376   9.684   5.618 -0.1504 -0.0706  0.0562
    1W        W47798   8.238  13.438   0.605 -0.1670 -0.2074 -0.2357
    1W        W47799  13.868  14.077   0.788  0.2350 -0.0998  0.0220
    1W        W47800  17.903   5.681   8.469  0.1611 -0.1815  0.3492
    1W        W47801  25.108  14.428   5.914  0.0288  0.2328 -0.3153
    1W        W47802  22.160   5.154   1.976  0.1420  0.1808  0.1816
    1W        W47803  24.477  12.363   1.017  0.1475 -0.0389  0.0833
    1W        W47804  16.012   9.379   0.859  0.0983  0.0102 -0.2767
    1W        W47805  28.233  19.868   6.295 -0.2766  0.1981 -0.0517
    1W        W47806  15.362  19.944   2.105 -0.0724 -0.2460  0.2155
    1W        W47807  13.498   6.063   1.841  0.0335  0.1639  0.3615
    1W        W47808   4.342  13.072   2.805  0.1631 -0.2542 -0.0307
    1W        W47809   3.006   7.676   0.570 -0.0639 -0.1618  0.1833
    1W        W47810  16.573  28.700   1.159 -0.1844 -0.0344 -0.4006
    1W        W47811   7.385  15.282   1.884 -0.2705  0.5322 -0.0066
    1W        W47812   7.291   5.179   0.756 -0.0077  0.0807  0.1989
    1W        W47813  20.156  26.641   2.481  0.0202  0.1189 -0.4358
    1W        W47814  23.559  18.244   2.877  0.0311 -0.1342 -0.0562
    1W        W47815   5.383   2.392   6.967 -0.1191 -0.0760  0.0724
    1W        W47816  12.496   0.824   1.893 -0.0599 -0.2602 -0.3184
    1W        W47817   2.370  25.341   2.627  0.1494  0.0165 -0.0495
    1W        W47818  10.440   8.870   2.814 -0.0940  0.0529 -0.0645
    1W        W47819   5.577  22.706   8.955 -0.0605  0.0141 -0.2565
    1W        W47820   0.956  17.670   8.101 -0.1449  0.0184  0.1089
    1W        W47821  20.304  20.412   8.350 -0.2516  0.0350  0.0359
    1W        W47822  13.690   6.555   1.703 -0.2714 -0.0930 -0.0340
    1W        W47823  26.534  17.045   1.857 -0.0631  0.0524 -0.0345
    1W        W47824  13.948  21.348   8.147  0.0132  0.1267 -0.0866
    1W        W47825  25.152  22.130   2.326 -0.0535 -0.1291 -0.0944
    1W        W47826  20.758  28.928   1.249  0.1571  0.0596 -0.1587
    1W        W47827  27.930   2.403   1.046  0.0771 -0.0234 -0.0673
    1W        W47828   3.330   5.702   6.653  0.1325  0.1274 -0.0097
    1W        W47829  16.975  28.499   0.899  0.0732  0.0786  0.2109
    1W        W47830  27.933  22.237   1.988  0.0374 -0.1026 -0.0285
    1W        W47831  17.654  10.313   1.929 -0.2612  0.3692 -0.3894
    1W        W47832  12.351  24.243   9.004 -0.0929 -0.0801  0.2947
    1W        W47833   3.313  17.010   8.135  0.0922  0.1792  0.0356
    1W        W47834   8.552   9.786   8.935 -0.0489  0.4627 -0.1527
    1W        W47835   9.187  26.668   9.323 -0.4036  0.0941 -0.0155
    1W        W47836   6.927   1.313   0.055 -0.3519 -0.4694 -0.1605
    1W        W47837   2.246   6.855   5.487  0.1837 -0.3846  0.0720
    1W        W47838   9.542   5.617   8.728  0.2580  0.0986 -0.0209
    1W        W47839   7.925  22.683   1.660 -0.0364  0.1077  0.0679
    1W        W47840  23.901  26.646   9.531 -0.0266  0.0838  0.3635
    1W        W47841  17.433  12.837   9.413  0.0137 -0.1485 -0.0908
    1W        W47842  14.924  23.948   0.257  0.4009 -0.1572 -0.2303
    1W        W47843   5.671   2.446   7.346 -0.1609  0.0495 -0.0100
    1W        W47844  23.657  17.972   7.118 -0.0251 -0.0029  0.0633
    1W        W47845  12.892  27.218   7.566 -0.0072 -0.0334  0.0836
    1W        W47846   8.533   9.325   9.202 -0.1900 -0.0405 -0.2725
    1W        W47847  26.674   2.670   5.937 -0.1563  0.0847  0.0670
    1W        W47848   8.376   1.208   1.818  0.1768  0.2050  0.0614
    1W        W47849   3.726   3.253   7.434 -0.0635  0.0750 -0.0572
    1W        W47850  18.183  11.032   1.218  0.1707 -0.3708 -0.2144
    1W        W47851   6.282  11.690   8.206 -0.0281  0.2299  0.4700
    1W        W47852  15.390   8.622   1.317  0.1359 -0.1932 -0.1592
    1W        W47853  15.019  17.718   9.640  0.2999  0.0227  0.0156
    1W        W47854   9.199  13.891   1.700  0.1793  0.0211  0.1701
    1W        W47855   9.261  15.986   1.690  0.0122  0.1252 -0.1363
    1W        W47856   8.269   5.694   2.315 -0.3499 -0.0683 -0.1472
    1W        W47857  13.199  15.712   0.439  0.0665  0.1870 -0.1694
    1W        W47858  11.201   8.493   2.491 -0.1152  0.0018 -0.2023
    1W        W47859  10.323  22.625   1.297 -0.0339  0.0597 -0.2150
    1W        W47860  24.173  23.670   2.418 -0.2881  0.1491 -0.0112
    1W        W47861  22.932  23.696   2.920 -0.3505 -0.2307  0.0968
    1W        W47862   1.178  17.696   7.646 -0.3598  0.0200  0.0245
    1W        W47863  13.758   7.813   0.130  0.1439  0.0199 -0.3655
    1W        W47864  11.952  12.726   7.325 -0.0240  0.2013  0.1708
    1W        W47865   0.357  13.809   9.320 -0.1560  0.1788 -0.0390
    1W        W47866   9.985   4.300   8.397  0.1925 -0.4165  0.0795
    1W        W47867   2.571   3.556   2.785 -0.0115  0.3365 -0.0514
    1W        W47868  13.892   7.536   0.892  0.2820 -0.0112  0.0289
    1W        W47869   1.880  23.969   0.900  0.2258 -0.0652  0.0511
    1W        W47870   1.764  17.332   8.896  0.0269 -0.1551  0.3335
    1W        W47871   2.898   3.501   1.548  0.3288 -0.0795  0.1161
    1W        W47872   4.823   6.897   0.719 -0.1355 -0.0414  0.2155
    1W        W47873  23.059  13.594   8.212 -0.0938 -0.2633 -0.1201
    1W        W47874   0.805  28.912   1.666  0.1364 -0.1723  0.1409
    1W        W47875  29.165  19.863   6.896  0.3555 -0.1128  0.2548
    1W        W47876   1.903  12.098   1.914 -0.1905 -0.0635  0.2664
    1W        W47877  18.248  18.925   2.723 -0.3926 -0.1501 -0.0515
    1W        W47878   8.705  21.351   2.093 -0.0349 -0.2633 -0.0222
    1W        W47879  16.183  10.061   9.117  0.0567 -0.0221  0.3518
    1W        W47880  29.072   0.802   7.076 -0.0130  0.0725 -0.0238
    1W        W47881  27.107  11.065   9.368  0.0907  0.0539  0.1030
    1W        W47882  21.844  23.277   8.238  0.0944  0.0634 -0.1086
    1W        W47883  11.529   3.980   0.381  0.1136  0.0637  0.1255
    1W        W47884  15.054  13.403   8.883  0.0414 -0.2378  0.0045
    1W        W47885   6.196   7.152   8.083 -0.0111 -0.0785  0.0695
    1W        W47886  27.947  28.732   7.722 -0.0487  0.0731  0.0807
    1W        W47887  17.526  19.535   1.252  0.0013  0.3631 -0.3065
    1W        W47888   7.799  28.481   1.517  0.0375  0.1806  0.1190
    1W        W47889  11.273  13.568   9.079  0.0901  0.0775  0.1431
    1W        W47890  21.040  23.363   7.388 -0.0494 -0.0362  0.0738
    1W        W47891  21.368  14.838   7.323 -0.1911 -0.2184  0.0952
    1W        W47892  12.675  20.421   9.423 -0.3011 -0.1204  0.3288
    1W        W47893  20.823  28.123   7.730  0.3132  0.4403 -0.1603
    1W        W47894  18.965   4.475   1.933  0.2874 -0.0668 -0.1112
    1W        W47895  26.927   1.477   9.100 -0.0639  0.1180  0.0707
    1W        W47896  27.606   0.069   2.591  0.0633  0.0940  0.0483
    1W        W47897   0.117  27.547   1.189  0.2032 -0.0319 -0.2199
    1W        W47898  16.496  17.008   0.475  0.0795 -0.2627  0.0280
    1W        W47899  22.887   5.567   7.982  0.1418  0.0006  0.3531
    1W        W47900  22.433  19.139   8.134  0.1122  0.2536 -0.0122
    1W        W47901  17.181   3.287   6.741  0.1651 -0.2120 -0.1040
    1W        W47902   0.231  28.543   0.128 -0.1077  0.4350  0.0326
    1W        W47903  21.298   2.558   2.667 -0.0219 -0.1423  0.1615
    1W        W47904   6.426   3.492   1.954  0.2037 -0.1658  0.0439
    1W        W47905  15.384  25.584   8.357 -0.1538  0.4510 -0.0192
    1W        W47906  24.095  12.561   7.289  0.2566 -0.0278 -0.0266
    1W        W47907  28.111   6.714   2.841  0.0804 -0.0932 -0.0790
    1W        W47908  23.362  20.745   3.239 -0.0875 -0.0337 -0.0319
    1W        W47909  22.833  20.579   2.195  0.0301  0.0663 -0.2036
    1W        W47910  20.411  16.649   8.120 -0.0998  0.1181 -0.2313
    1W        W47911  23.819   9.743   1.755  0.1252  0.0486  0.2032
    1W        W47912   9.915   2.200   0.481 -0.0621 -0.3196  0.0655
    1W        W47913  12.115  26.519   3.336  0.2117 -0.2347 -0.3201
    1W        W47914  19.062  26.713   7.300  0.0855 -0.2257 -0.0655
    1W        W47915  23.147  13.278   9.333 -0.0190  0.0090 -0.3854
    1W        W47916  28.116  13.736   7.298 -0.1886 -0.0811  0.3754
    1W        W47917   5.713  18.787   0.637 -0.2146  0.1006  0.0941
    1W        W47918  23.701  24.147   1.585  0.0068  0.4198  0.0202
    1W        W47919   8.529   8.630   9.462  0.0114  0.0842  0.0746
    1W        W47920  13.245  11.448   2.380 -0.0834 -0.0180 -0.0323
    1W        W47921  15.748  26.167   7.861  0.1765 -0.0582 -0.0947
    1W        W47922   1.518   0.249   9.208 -0.0117 -0.0182 -0.2691
    1W        W47923  11.269   3.682   1.504  0.2496  0.4317 -0.1463
    1W        W47924   0.051  20.529   1.600 -0.2434  0.0527  0.1697
    1W        W47925   9.492  20.661   1.199  0.0836  0.1616  0.0670
    1W        W47926   6.889   5.897   0.777 -0.0473 -0.1042 -0.0669
    1W        W47927  10.054  25.786   1.809 -0.0685  0.1667  0.1866
    1W        W47928   8.132  26.159   9.351  0.0379  0.1833 -0.1121
    1W        W47929  25.604  11.187   6.932 -0.0526 -0.0304  0.2301
    1W        W47930  29.040  24.866   1.173  0.1881 -0.0947  0.1051
    1W        W47931  25.778  23.637   6.498  0.0114  0.2359  0.0634
    1W        W47932  23.655  25.745   8.245 -0.0914  0.0230 -0.0918
    1W        W47933   8.799  25.218   8.023 -0.1127  0.2845 -0.1035
    1W        W47934  23.878   6.112   9.665  0.2198 -0.0034  0.3429
    1W        W47935  12.713   0.019   2.585 -0.0435  0.0903  0.0680
    1W        W47936   4.922  27.283   2.713  0.0080  0.0348  0.1694
    1W        W47937   0.652  16.937   1.859  0.0385  0.0110  0.1653
    1W        W47938  26.704   2.262   7.776 -0.1852  0.1193 -0.0036
    1W        W47939  13.562  28.281   1.019  0.0422  0.0354 -0.1135
    1W        W47940  18.058   6.245   9.137 -0.1643  0.1794 -0.1150
    1W        W47941  21.510  22.059   8.890  0.0716  0.2630  0.0135
    1W        W47942  15.633  15.796   9.343  0.1077  0.0777 -0.1205
    1W        W47943  16.825  10.980   8.650  0.4321 -0.3446 -0.0222
    1W        W47944  22.600  25.573   8.573 -0.1160 -0.1221 -0.3266
    1W        W47945  14.928   4.158   2.580  0.0531 -0.1508  0.2109
    1W        W47946  14.234   1.192   0.523  0.1618 -0.1685  0.2316
    1W        W47947  11.321   0.842   0.393 -0.0135 -0.1153  0.0276
    1W        W47948  24.182  19.523   7.287  0.0377  0.3188  0.3077
    1W        W47949   5.355   3.782   9.033 -0.0742  0.1494  0.0176
    1W        W47950  27.762   5.388   6.152 -0.1422 -0.3556 -0.1170
    1W        W47951   6.826  19.352   8.509 -0.0727  0.3253  0.0433
    1W        W47952   4.947   2.469   7.958 -0.0440 -0.3123  0.1383
    1W        W47953   9.014  21.616   8.121 -0.3270  0.0660 -0.1824
    1W        W47954  28.382  12.755   1.935 -0.2877  0.2161  0.0395
    1W        W47955  14.763  24.342   9.627  0.2870  0.1996 -0.1197
    1W        W47956   6.250  19.243   8.714 -0.2084  0.3574  0.1357
    1W        W47957  26.948  20.866   8.381 -0.1162  0.4326 -0.0226
    1W        W47958  27.794  11.858   6.234 -0.0144 -0.0810 -0.3421
    1W        W47959  13.418  13.962   9.333 -0.1476  0.0411 -0.0608
    1W        W47960   8.057   8.698   7.242  0.3464 -0.1519  0.1224
    1W        W47961   0.784  26.206   2.478 -0.1568  0.3237  0.0215
    1W        W47962  18.634   7.961   1.389 -0.0183 -0.1737 -0.1131
    1W        W47963  28.941  10.687   1.399 -0.0144 -0.0435 -0.6021
    1W        W47964  12.260  25.563   7.731  0.1274 -0.0570 -0.0681
    1W        W47965   2.622  15.017   8.487  0.1528 -0.0270  0.2942
    1W        W47966  26.497   9.185   1.409 -0.2205 -0.1547  0.1314
    1W        W47967   9.124  27.648   1.171  0.0517 -0.0323 -0.0374
    1W        W47968  17.445   3.987   7.395 -0.0180 -0.1168  0.0658
    1W        W47969  25.177  14.600   8.011 -0.1670 -0.0613 -0.2771
    1W        W47970   8.512   7.939   0.728  0.2351 -0.1498  0.3644
    1W        W47971   4.641  13.391   5.740  0.0181 -0.0216 -0.1787
    1W        W47972   3.478  23.513   1.939  0.1308 -0.1488  0.2752
    1W        W47973   9.949  26.511   2.356  0.1307  0.1668  0.2081
    1W        W47974   7.382  15.782   6.896  0.0549 -0.1523 -0.0205
    1W        W47975   2.656  13.947   7.991 -0.1171  0.0075  0.2183
    1W        W47976  24.187  20.996   1.723  0.0074 -0.1490 -0.1077
    1W        W47977  28.789  17.737   1.924  0.0187 -0.5273  0.0898
    1W        W47978   3.563   7.824   0.873 -0.1220  0.1045 -0.0573
    1W        W47979  29.290  28.148   0.448  0.0548 -0.0026  0.2677
    1W        W47980   1.289   6.649   9.590 -0.3987  0.0275  0.0833
    1W        W47981  14.002  20.371   1.261  0.1553  0.0061  0.2280
    1W        W47982  28.412  26.106   0.244 -0.1075  0.0608 -0.2671
    1W        W47983   5.407  20.957   9.192  0.2277  0.2092  0.1725
    1W        W47984   8.692  16.428   7.829 -0.0185  0.1571  0.2821
    1W        W47985   2.974  11.070   1.809  0.0196  0.2205  0.4705
    1W        W47986   0.813  22.446   2.102  0.2318  0.1241  0.1521
    1W        W47987   7.504  13.736   0.149 -0.3552 -0.1118 -0.1750
    1W        W47988  13.055  12.484   7.636  0.1776  0.1101 -0.2546
    1W        W47989   4.238  24.344   6.141  0.2346 -0.2808  0.3577
    1W        W47990  16.320  16.522   1.314  0.2335 -0.1872 -0.0674
    1W        W47991  26.987   1.949   8.853 -0.1616  0.2190  0.3045
    1W        W47992   1.379  25.613   7.836 -0.2758  0.0552 -0.3070
    1W        W47993   6.622  21.028   7.655 -0.0885 -0.3318 -0.1249
    1W        W47994  10.298  28.381   0.961 -0.1799  0.2674 -0.0933
    1W        W47995  18.931   3.075   1.179 -0.3378 -0.2164  0.0669
    1W        W47996  12.497   5.663   9.036  0.1102  0.1427 -0.1551
    1W        W47997   6.850  23.457   6.669 -0.0419  0.2099 -0.0707
    1W        W47998  10.258  10.149   8.785  0.1313 -0.0789 -0.0761
    1W        W47999  10.539  19.350   0.726  0.1824 -0.4352 -0.0300
    1W        W48000   8.044  20.850   7.734 -0.1321  0.1399 -0.0196
    1W        W48001   1.405   9.401   1.086 -0.1158  0.2406  0.2042
    1W        W48002  14.334  27.163   3.552  0.0470  0.0959  0.0019
    1W        W48003  28.970  11.334   8.920 -0.1106 -0.1113 -0.3771
    1W        W48004   4.302   4.323   0.763 -0.2940 -0.1157  0.0202
    1W        W48005  13.115  23.967   2.053 -0.0119  0.0035 -0.4310
    1W        W48006   4.236  24.215   1.731  0.0231  0.1321  0.0417
    1W        W48007  14.127  26.225   0.688 -0.1831 -0.5074 -0.1131
    1W        W48008  25.202  18.656   7.896  0.0113  0.0923  0.0866
    1W        W48009  14.347  21.021   2.643  0.2493 -0.0756  0.4854
    1W        W48010  24.585  11.398   1.937  0.1537  0.3519  0.0707
    1W        W48011  15.265  23.251   1.104  0.0560  0.1012 -0.0559
    1W        W48012  28.146  13.127   0.503  0.1496 -0.0797  0.2634
    1W        W48013  16.644  22.062   2.169 -0.2629 -0.0154 -0.0728
    1W        W48014  23.886  13.174   6.092  0.0998 -0.1376 -0.1005
    1W        W48015  10.085  20.657   9.262 -0.0005 -0.1673 -0.1602
    1W        W48016   9.113  13.677   8.381  0.3201 -0.4426  0.0851
    1W        W48017  10.007   1.441   2.332  0.0043 -0.2538  0.0589
    1W        W48018   8.584  26.453   8.701  0.1591  0.3876  0.1418
    1W        W48019  15.304   1.207   2.258 -0.1993 -0.1552 -0.0542
    1W        W48020   2.769  11.943   6.443  0.2424  0.0664 -0.0737
    1W        W48021   8.777  15.761   1.761 -0.1469 -0.0357 -0.4072
    1W        W48022   3.685  17.987   9.009  0.1291  0.3469 -0.2263
    1W        W48023   7.256   2.132   3.408 -0.2135 -0.0975 -0.2393
    1W        W48024   4.767  24.057   1.568  0.1868 -0.1949  0.1366
    1W        W48025  12.123   8.175   0.596  0.1778  0.1104 -0.1276
    1W        W48026   4.271  20.229   7.546 -0.0334 -0.0242 -0.0396
    1W        W48027   0.908  21.248   2.114 -0.0816 -0.0435 -0.1468
    1W        W48028  19.480   3.525   2.811 -0.1364 -0.1480 -0.0570
    1W        W48029   8.980  20.503   1.280 -0.1059 -0.3492  0.0410
    1W        W48030   1.767  14.035   7.763 -0.0407  0.0208  0.0772
    1W        W48031   9.015  28.078   3.464  0.2386  0.3916 -0.1415
    1W        W48032  13.125  17.187   1.210 -0.3224  0.0497  0.0586
    1W        W48033  24.983  17.261   0.393 -0.0091 -0.3896 -0.0964
    1W        W48034   5.217  16.031   1.438 -0.3503 -0.0211 -0.0203
    1W        W48035  12.875   5.873   8.365  0.0024  0.0006 -0.0838
    1W        W48036  12.754   5.372   8.752  0.0617 -0.0664 -0.2069
    1W        W48037  22.699   5.524   8.446 -0.1012  0.1062  0.4298
    1W        W48038   0.311  22.520   9.142 -0.1321  0.0840  0.0969
    1W        W48039  26.271   0.419   9.181 -0.0656  0.0960 -0.1947
    1W        W48040  20.301   0.921   8.836 -0.0886 -0.0200 -0.0468
    1W        W48041  16.930  21.460   9.425  0.0622 -0.4635 -0.0028
    1W        W48042  24.078   4.270   7.174 -0.3006 -0.0257  0.1358
    1W        W48043   4.806   9.717   3.433 -0.1734 -0.0562 -0.1125
    1W        W48044   1.415  24.032   7.109 -0.0619  0.3093  0.2460
    1W        W48045  25.244  22.953   7.986 -0.0184 -0.1135  0.1244
    1W        W48046  26.033  20.316   8.560  0.0992  0.0323  0.0097
    1W        W48047  18.318  15.040   7.442  0.0656  0.0962  0.0644
    1W        W48048  25.176  16.307   0.206 -0.0806  0.2007  0.0546
    1W        W48049  17.904   6.087   8.041  0.1796 -0.2454  0.0645
    1W        W48050   7.366  24.714   0.908 -0.4309  0.1484 -0.2103
    1W        W48051   0.821  19.722   7.882 -0.1040 -0.3813 -0.0081
    1W        W48052   0.120   1.202   8.791  0.0251  0.0413  0.0854
    1W        W48053  20.064   9.681   3.011  0.1662  0.0515 -0.0615
    1W        W48054  25.425   9.476   1.412 -0.0553 -0.0320  0.0598
    1W        W48055   6.953   7.119   6.870  0.2390  0.2869 -0.1072
    1W        W48056  24.777  10.216   1.388  0.1891 -0.0392  0.2142
    1W        W48057  12.791   8.162   2.291 -0.1347 -0.0209 -0.1717
    1W        W48058   3.227   8.851   1.982 -0.0652 -0.1872  0.0431
    1W        W48059  18.374   9.516   8.206  0.1290 -0.1503 -0.0287
    1W        W48060  20.671  17.359   8.980 -0.1336 -0.5369 -0.1871
    1W        W48061   4.930   4.498   2.044 -0.1721  0.1238 -0.3097
    1W        W48062  26.599  10.521   9.560  0.1848 -0.2094  0.0684
    1W        W48063  20.281  21.509   7.880 -0.0305  0.1800  0.1057
    1W        W48064  21.829  20.842   0.111 -0.2224 -0.5115 -0.0427
    1W        W48065   2.192  16.851   8.225  0.1119 -0.0100 -0.3523
    1W        W48066  25.599  14.589   6.175  0.0899 -0.0289  0.3059
    1W        W48067   9.335   7.035   0.950 -0.0706  0.3810  0.2704
    1W        W48068  16.552   0.807   1.961 -0.0934 -0.0576 -0.1784
    1W        W48069  23.759   7.699   8.287  0.1880  0.0003 -0.2665
    1W        W48070   6.717  12.187   1.213 -0.1026 -0.2065  0.1253
    1W        W48071  14.580   4.602   8.315  0.2193 -0.0555  0.1243
    1W        W48072  17.918  20.267   8.215 -0.0681  0.3921 -0.1107
    1W        W48073  25.302  11.247   2.071 -0.1601 -0.0030 -0.1888
    1W        W48074   2.631  10.078   8.574 -0.0811  0.1426 -0.0650
    1W        W48075  19.116   2.155   2.314  0.0504 -0.0739  0.2454
    1W        W48076  16.049   0.533   6.847 -0.0271  0.1038 -0.1650
    1W        W48077  15.855  22.865   8.692  0.0212 -0.2098 -0.0347
    1W        W48078  13.819   9.229   2.630  0.1477  0.1620  0.2404
    1W        W48079   2.535   3.742   0.104 -0.0019 -0.0755  0.0631
    1W        W48080  27.832  12.666   1.625 -0.1218 -0.2019  0.1885
    1W        W48081  27.270   8.291   6.372  0.1959 -0.0705 -0.2181
    1W        W48082   9.055  17.086   7.522  0.2179 -0.1289 -0.0857
    1W        W48083  16.593   6.524   7.961 -0.2724 -0.1498 -0.3281
    1W        W48084   7.712  21.650   1.321 -0.1222 -0.1874  0.0419
    1W        W48085  27.934  22.082   7.357 -0.1542 -0.2285 -0.1372
    1W        W48086  27.402  25.715   9.088  0.2361  0.1741 -0.3393
    1W        W48087  25.755  10.301   7.832  0.0776 -0.2385 -0.2361
    1W        W48088  22.431  12.955   0.050  0.3017  0.2144 -0.4386
    1W        W48089   4.323  26.225   2.440 -0.1296 -0.0157 -0.0710
    1W        W48090  29.272   4.455   1.656 -0.1879  0.2240 -0.1740
    1W        W48091   2.593   7.951   1.241  0.0483  0.1605 -0.0570
    1W        W48092  14.558  12.814   8.712  0.0114  0.2312 -0.1553
    1W        W48093  12.300   7.316   7.627  0.0999  0.1392  0.3150
    1W        W48094  27.966  12.598   0.687 -0.0095 -0.0579 -0.0337
    1W        W48095   7.878   9.503   7.202 -0.0978  0.0936 -0.3005
    1W        W48096   4.134  17.434   7.832 -0.1014 -0.2556  0.1659
    1W        W48097  23.424   7.910   9.101  0.0750 -0.0261 -0.2212
    1W        W48098   7.505  11.036   1.611 -0.1177 -0.0515  0.1544
    1W        W48099  11.236  11.257   0.486  0.1121  0.2662 -0.1755
    1W        W48100   3.476   7.915   1.391  0.0784  0.0799  0.0284
    1W        W48101   1.681  17.766   0.687 -0.0728  0.0033  0.2965
    1W        W48102  28.814  17.135   6.886 -0.2874  0.1617 -0.1789
    1W        W48103  28.073   2.285   8.008  0.4019 -0.0649  0.1587
    1W        W48104  27.003  18.463   9.315 -0.1329  0.0194  0.1504
    1W        W48105  26.799   1.968   2.239  0.0279  0.0609 -0.2492
    1W        W48106  23.586  14.705   0.626 -0.2250 -0.1105 -0.1335
    1W        W48107  11.373  20.367   0.517  0.1050 -0.3700  0.0080
    1W        W48108  12.483  16.928   0.710 -0.2101  0.0562 -0.3807
    1W        W48109  10.478  18.677   1.457 -0.0784 -0.0958 -0.0195
    1W        W48110  13.309   4.432   0.022 -0.0478 -0.1667 -0.1114
    1W        W48111  25.036  25.044   2.342 -0.2379  0.0922  0.0929
    1W        W48112   9.882   4.518   7.760  0.1484 -0.3395 -0.3229
    1W        W48113  19.670  16.886   0.170 -0.2318  0.0828 -0.0249
    1W        W48114  18.943   0.513   8.075 -0.0226 -0.2147  0.1400
    1W        W48115   6.159   3.281   8.837  0.0135 -0.0870  0.1392
    1W        W48116  20.873  26.757   7.064 -0.2210  0.3022 -0.3248
    1W        W48117   2.268  15.826   6.576  0.0235 -0.2988  0.1943
    1W        W48118  27.169  10.438   1.386  0.0327  0.3218  0.1447
    1W        W48119  17.830  21.662   1.715 -0.0852  0.1022  0.3167
    1W        W48120  27.363   9.868   1.372 -0.2468  0.2004 -0.4809
    1W        W48121   0.441  11.156   6.385  0.2289  0.0399  0.1429
    1W        W48122  25.452  11.725   2.116 -0.0583 -0.2163  0.0247
    1W        W48123  17.771   5.071   1.623  0.4029 -0.1768 -0.3563
    1W        W48124  14.916   5.857   2.640 -0.3479  0.2465  0.0152
    1W        W48125  10.837  21.213   6.832  0.0311 -0.2314 -0.0566
    1W        W48126  14.261   1.588   7.264  0.2043  0.1352 -0.1804
    1W        W48127   1.528  21.880   1.846  0.1953  0.2138 -0.0377
    1W        W48128  26.384   8.359   6.141 -0.0707 -0.4125 -0.0147
    1W        W48129   9.353  20.310   1.558 -0.1234  0.0967  0.1744
    1W        W48130  27.508   4.328   2.382  0.0424 -0.0227 -0.1327
    1W        W48131  25.381  20.359   6.897 -0.1512 -0.2833 -0.2369
    1W        W48132   1.587  28.702   8.637  0.1034 -0.0384 -0.0494
    1W        W48133   4.645   8.366   1.762  0.0834 -0.3006 -0.0108
    1W        W48134   7.206  10.664   1.707 -0.1356 -0.0171 -0.2483
    1W        W48135  11.128   0.472   2.873 -0.2766  0.4642  0.1396
    1W        W48136  15.606  23.964   8.136 -0.3487 -0.0248  0.0499
    1W        W48137  14.750   6.962   0.616  0.0046  0.2984  0.4609
    1W        W48138  23.804  20.850   3.355 -0.0380 -0.1560  0.0784
    1W        W48139  12.694   1.233   0.736  0.0917  0.0688  0.1188
    1W        W48140  10.334  23.270   1.191 -0.2069 -0.3409 -0.2842
    1W        W48141   5.249  10.908   1.792 -0.0038  0.5326  0.0244
    1W        W48142  16.771  22.595   7.960 -0.0042 -0.1309  0.2155
    1W        W48143   4.909  29.124   2.845 -0.0226 -0.3561  0.2430
    1W        W48144   6.518  25.965   9.677 -0.0106 -0.0552 -0.1386
    1W        W48145  23.003  17.646   8.318  0.1258 -0.0050  0.3193
    1W        W48146  18.302  24.210   0.438  0.1482  0.0954 -0.1797
    1W        W48147   7.086   5.361   1.716 -0.1727  0.3490  0.0106
    1W        W48148   6.561  20.339   5.898  0.1470  0.2052  0.1100
    1W        W48149   0.524   8.754   8.487  0.1579 -0.0259 -0.2096
    1W        W48150  20.979   8.452   9.147  0.0334  0.0037 -0.3048
    1W        W48151  23.973  18.626   1.930  0.0539 -0.0964 -0.0265
    1W        W48152  21.209  27.168   2.638 -0.1442  0.1425 -0.1082
    1W        W48153  25.696  16.650   7.152  0.1173  0.2754 -0.1454
    1W        W48154  27.049   7.511   0.633 -0.1541  0.2569  0.0323
    1W        W48155  13.327   1.156   2.909 -0.1561  0.0427  0.2387
    1W        W48156   7.520  15.286   9.489 -0.1522  0.2662 -0.1283
    1W        W48157  16.881  17.273   7.728  0.0330 -0.1704  0.0475
    1W        W48158  27.825   9.714   7.066 -0.0563  0.3705  0.0179
    1W        W48159  12.629   8.534   8.727 -0.1789 -0.2864  0.1736
    1W        W48160  19.771  27.285   0.812  0.0218 -0.2651  0.3006
    1W        W48161   1.754  13.123   1.740  0.1500 -0.0344 -0.2430
    1W        W48162  28.182  25.144   0.577  0.3615 -0.0980  0.0177
    1W        W48163  23.697  24.530   3.744  0.1871  0.1948  0.0629
    1W        W48164  21.772  17.498   0.466  0.2019  0.2864  0.1552
    1W        W48165  28.919  13.529   1.464  0.2215  0.0458  0.1216
    1W        W48166   2.586  11.058   1.349  0.3143  0.2205 -0.0238
    1W        W48167  19.393  24.435   0.979 -0.1343  0.2349  0.4302
    1W        W48168  24.078  18.454   1.493  0.2806 -0.2553 -0.0106
    1W        W48169  23.377  17.095   1.625  0.2002 -0.0425  0.2108
    1W        W48170  11.399   3.076   1.860 -0.2618 -0.0013 -0.2095
    1W        W48171  23.930  22.225   9.353 -0.1274  0.1252  0.1233
    1W        W48172   1.990  23.851   7.024  0.0554 -0.1553  0.0459
    1W        W48173   2.091   2.222   7.072 -0.0348  0.1092 -0.0858
    1W        W48174  24.261   5.639   2.362 -0.1304  0.3021 -0.3354
    1W        W48175   8.562  16.878   1.234  0.1504  0.0728 -0.0231
    1W        W48176  12.455   6.312   2.142  0.0232 -0.0310 -0.1303
    1W        W48177  24.128  21.497   7.875 -0.0471 -0.0099  0.2413
    1W        W48178   7.699  25.067   9.299 -0.0701  0.1506  0.2676
    1W        W48179   6.618   3.037   1.955  0.1529  0.0122 -0.2346
    1W        W48180  26.764  23.041   0.352 -0.1685 -0.0666 -0.0053
    1W        W48181  24.769  25.123   0.830 -0.1630 -0.1505  0.2193
    1W        W48182   0.044   5.333   1.427 -0.0249  0.1035 -0.3316
    1W        W48183  17.953  22.093   7.688  0.0436 -0.1784  0.2105
    1W        W48184   4.168   4.293   7.102 -0.0529 -0.0958 -0.0861
    1W        W48185  23.397  23.316   6.651  0.0061  0.0493  0.2154
    1W        W48186   5.243  13.834   8.000 -0.3141  0.2290 -0.3210
    1W        W48187  12.000  12.221   2.362  0.0750  0.1115  0.1649
    1W        W48188   4.553   1.033   8.450 -0.1002  0.2864 -0.1594
    1W        W48189   0.329  11.410   1.672  0.2713 -0.1427  0.0714
    1W        W48190  23.045  12.913   8.850  0.0112  0.2445  0.1840
    1W        W48191   0.342  12.872   7.132 -0.1691 -0.4287 -0.0176
    1W        W48192  18.199   7.799   1.904  0.0283 -0.1529  0.0695
    1W        W48193  14.042   2.063   0.399  0.1891 -0.0443 -0.0685
    1W        W48194  14.264  23.789   2.596 -0.0288  0.2340 -0.3559
    1W        W48195   0.286  25.774   7.394 -0.0531 -0.0688  0.1280
    1W        W48196  13.073   4.805   0.769 -0.0372  0.0389 -0.0505
    1W        W48197  25.116  26.010   2.611 -0.0210  0.1952 -0.1677
    1W        W48198   8.968   6.910   0.516  0.1431  0.0470  0.0481
    1W        W48199   3.619  26.697   1.757  0.2776 -0.3812 -0.0236
    1W        W48200  23.326   3.644   6.640 -0.0408  0.0403  0.3504
    1W        W48201  14.376  23.559   2.156  0.1434 -0.0967  0.1726
    1W        W48202  22.875   0.236   8.307 -0.3175  0.5789 -0.0929
    1W        W48203  16.890  28.545   9.024  0.0024  0.2665 -0.0436
    1W        W48204  11.474  13.001   0.110  0.0553 -0.1757 -0.0993
    1W        W48205  11.407  17.524   8.616  0.1298 -0.0682 -0.0436
    1W        W48206   8.251  23.848   1.136 -0.0761 -0.2017 -0.0701
    1W        W48207  15.809  13.026   0.090  0.2019 -0.1348  0.1408
    1W        W48208   9.037  25.773   2.665 -0.3489  0.2186 -0.1445
    1W        W48209  28.245   8.715   2.077 -0.2154  0.1106 -0.2897
    1W        W48210  15.031   4.415   8.061 -0.2024 -0.2101  0.2530
    1W        W48211  20.225  14.568   8.909 -0.1838  0.2151  0.0123
    1W        W48212  25.856  12.478   1.067 -0.0952  0.0004  0.0477
    1W        W48213   8.177  12.954   0.778  0.3062 -0.3331 -0.1074
    1W        W48214  15.852   3.764   2.876 -0.0049 -0.1855 -0.2261
    1W        W48215  24.523  12.392   9.477  0.1480 -0.2190 -0.0345
    1W        W48216  11.964   6.230   1.895  0.2155  0.4828 -0.1118
    1W        W48217  21.194  23.048   1.126  0.1065 -0.1421 -0.1813
    1W        W48218  15.276  15.406   9.615 -0.5206  0.1496 -0.0932
    1W        W48219   4.887   3.375   1.451  0.0730  0.0058 -0.1033
    1W        W48220  23.356   0.689   2.202 -0.1023 -0.1632  0.3393
    1W        W48221  25.948   7.177   7.982 -0.0382 -0.1554 -0.4710
    1W        W48222  25.315  17.527   8.613  0.0222 -0.0713 -0.0318
    1W        W48223   7.905  28.166   2.770 -0.4643 -0.0328 -0.3306
    1W        W48224  13.553  24.939   9.108 -0.1308  0.0001  0.0637
    1W        W48225  18.219   5.620   2.324  0.0653  0.3326 -0.1889
    1W        W48226  20.224   8.723   1.749  0.2466  0.0838 -0.5254
    1W        W48227  22.095  23.660   2.605 -0.5543  0.1523  0.0193
    1W        W48228  15.035   5.502   8.828  0.0639 -0.1104 -0.0287
    1W        W48229  14.903  12.156   7.096  0.1281 -0.0557 -0.3616
    1W        W48230   4.501  13.868   5.985  0.2413  0.0572  0.1114
    1W        W48231  27.119  24.858   1.967 -0.0760  0.1547 -0.0209
    1W        W48232  14.782  20.151   8.256  0.1551  0.1162  0.1802
    1W        W48233  23.972  26.786   6.964 -0.1720 -0.1852 -0.1193
    1W        W48234  10.860   2.942   8.466 -0.2722 -0.1553 -0.1698
    1W        W48235  11.109  20.557   9.334  0.0089  0.0311  0.3517
    1W        W48236   5.140  25.858   8.547 -0.0403 -0.3396 -0.3643
    1W        W48237  13.684  22.024   6.871  0.3100 -0.1297  0.1164
    1W        W48238  15.132  10.515   1.662  0.3259  0.0685  0.1156
    1W        W48239  15.518  29.159   8.025  0.0032  0.1856 -0.1519
    1W        W48240   3.619   7.154   0.071 -0.2397  0.2397  0.1481
    1W        W48241  15.128  26.274   2.476 -0.0778  0.1695 -0.0140
    1W        W48242  21.256  28.890   7.887  0.2193 -0.0359  0.1564
    1W        W48243   9.575  28.764   3.053  0.0111  0.2739 -0.4440
    1W        W48244  11.223  29.358   3.305  0.0440  0.0543  0.3257
    1W        W48245   9.418  10.746   7.780 -0.1115  0.1249 -0.0208
    1W        W48246  27.949  12.010   1.424 -0.1225 -0.2283 -0.1607
    1W        W48247  15.684  28.970   3.033  0.0533  0.2394 -0.3587
    1W        W48248  16.324  29.357   7.713 -0.0345 -0.1601  0.1801
    1W        W48249  19.970   1.655   9.105  0.2469  0.2539  0.4576
    1W        W48250  26.862  21.610   0.916 -0.0753 -0.2258  0.0826
    1W        W48251  21.430   8.544   9.363 -0.0457  0.2163 -0.1789
    1W        W48252   0.090  11.626   0.315  0.0965  0.0358 -0.1976
    1W        W48253  15.528  16.639   0.471 -0.2036 -0.2673  0.1563
    1W        W48254  10.817   9.186   2.764 -0.1483  0.1259 -0.3121
    1W        W48255  18.711  22.234   1.652 -0.1272  0.1313  0.1624
    1W        W48256  15.234  23.045   7.700  0.0183 -0.1671 -0.0569
    1W        W48257   2.233  11.974   6.940  0.3538  0.1212 -0.0675
    1W        W48258   8.320   1.858   2.981 -0.0567 -0.0561  0.2831
    1W        W48259  14.147   4.752   3.347  0.2820 -0.1485  0.2441
    1W        W48260  11.735   0.864   3.603 -0.1582 -0.2719 -0.0924
    1W        W48261  22.370  28.558   0.107 -0.0958 -0.1128 -0.2534
    1W        W48262   1.190  10.470   7.798  0.1320  0.1831 -0.0235
    1W        W48263   1.583   9.882   2.237 -0.1288 -0.0128 -0.4030
    1W        W48264  29.346   5.344   7.688  0.3198 -0.0851  0.0481
    1W        W48265  24.696  13.087   1.297  0.0281 -0.3990 -0.0107
    1W        W48266   1.224   2.488   0.199  0.3259  0.1455  0.1737
    1W        W48267   8.673   4.970   8.600 -0.1852 -0.1366 -0.0925
    1W        W48268  24.549  22.609   8.711  0.0466 -0.1874  0.0421
    1W        W48269   9.563   8.354   2.583  0.0010 -0.2965  0.1149
    1W        W48270  22.461  22.108   2.793  0.3452 -0.2657 -0.1215
    1W        W48271  14.742  17.014   2.582 -0.2801  0.1311 -0.0992
    1W        W48272  17.386  16.885   0.225  0.0876  0.0913  0.0494
    1W        W48273  14.183  19.470   7.336  0.0938 -0.3574  0.3322
    1W        W48274  22.958   5.757   9.380 -0.2034 -0.0355 -0.0090
    1W        W48275  26.419   9.703   8.811 -0.0621 -0.1811 -0.2199
    1W        W48276  18.099  12.617   8.827 -0.3857  0.0035 -0.1106
    1W        W48277  17.259   6.562   2.636 -0.1624  0.2324  0.0613
    1W        W48278  27.276   6.568   8.538 -0.0126 -0.0489 -0.0984
    1W        W48279  15.022   3.333   0.178 -0.1108  0.4404 -0.2080
    1W        W48280   2.175   4.201   0.807 -0.4223  0.0714  0.0903
    1W        W48281   6.276   0.937   0.782 -0.2778 -0.1024 -0.0343
    1W        W48282   7.090   9.809   6.041 -0.1730 -0.2655 -0.1192
    1W        W48283  19.900  20.857   0.461 -0.2064 -0.1800 -0.0437
    1W        W48284   2.686  28.251   1.965  0.2513 -0.1922  0.3862
    1W        W48285  28.319  11.545   9.688 -0.1575 -0.0486 -0.1080
    1W        W48286  10.805  21.852   1.455  0.2497  0.2736  0.1198
    1W        W48287  22.321  11.817   9.294  0.1192  0.1458  0.0946
    1W        W48288  21.863   6.123   3.299 -0.0233  0.1796  0.2205
    1W        W48289   8.292  23.722   7.973  0.1670 -0.0514 -0.3882
    1W        W48290  11.253   0.690   9.581 -0.1553 -0.0704 -0.0484
    1W        W48291   4.409   8.730   7.549 -0.3362  0.0347  0.2009
    1W        W48292  11.150  12.078   7.059 -0.0985  0.0484 -0.0672
    1W        W48293   1.597   1.808   1.475  0.2904  0.3552  0.3967
    1W        W48294  17.054  13.098   8.616  0.3244 -0.1602  0.0256
    1W        W48295  22.668  16.100   6.731  0.0584  0.2796  0.2042
    1W        W48296  21.882   2.338   0.042  0.2080 -0.0240  0.2613
    1W        W48297   5.088   8.319   5.907  0.2680 -0.6075 -0.2288
    1W        W48298   0.894  15.398   1.907 -0.1913 -0.0022  0.1470
    1W        W48299  21.223  26.697   2.791  0.1248 -0.3020 -0.2143
    1W        W48300  21.530  12.228   8.057  0.2333  0.0401  0.1865
    1W        W48301  14.860   2.756   8.136  0.0674 -0.1879  0.0108
    1W        W48302   2.337   1.495   1.976 -0.1157 -0.4293 -0.2112
    1W        W48303  22.464   5.314   1.026  0.2529 -0.0475  0.1055
    1W        W48304  14.457  14.133   0.830 -0.6448  0.2435 -0.1598
    1W        W48305   5.715   9.905   7.654  0.0682 -0.0045 -0.2044
    1W        W48306   0.219  12.264   6.548 -0.1349 -0.4723 -0.1977
    1W        W48307  12.618   3.712   1.526 -0.0138  0.2254 -0.3334
    1W        W48308  20.924  14.783   0.904 -0.0982  0.1152 -0.0187
    1W        W48309   9.839  22.292   7.166 -0.0680 -0.6217 -0.2732
    1W        W48310   4.534  14.418   1.649 -0.2357  0.0455 -0.1569
    1W        W48311   6.070   2.111   9.249 -0.0657 -0.0055 -0.2219
    1W        W48312  23.832   1.802   1.572  0.1243 -0.1122 -0.1943
    1W        W48313  24.361   9.287   6.847 -0.0431  0.0904  0.0529
    1W        W48314   2.233  16.316   6.562  0.1295 -0.1048 -0.0492
    1W        W48315  16.570  16.343   7.561 -0.2445 -0.2695  0.4262
    1W        W48316   2.160  19.554   7.806 -0.1769 -0.0682 -0.1542
    1W        W48317   9.962  13.291   0.652 -0.0461 -0.0237 -0.2099
    1W        W48318  28.326  26.309   2.262  0.3810 -0.0608  0.0010
    1W        W48319  23.112  17.712   0.142  0.0785 -0.6066  0.4966
    1W        W48320  20.335  23.185   9.233  0.2318 -0.1250 -0.0722
    1W        W48321  12.661  28.620   9.426 -0.3150 -0.3272 -0.4576
    1W        W48322  22.961  12.106   6.472  0.1144  0.2994  0.0914
    1W        W48323   4.451  14.750   8.110  0.0621 -0.0403  0.0875
    1W        W48324  12.542   8.967   0.027 -0.1350 -0.1477 -0.2232
    1W        W48325   4.807  23.457   9.395 -0.0957  0.1590 -0.0061
    1W        W48326  25.568  21.344   8.435  0.1368  0.2140  0.0644
    1W        W48327  24.344  20.907   6.997  0.0531  0.2499  0.0120
    1W        W48328   6.643  24.423   0.271  0.3088 -0.1447 -0.0452
    1W        W48329   8.105   2.846   7.473  0.2974  0.2637 -0.1979
    1W        W48330  16.839  16.737   2.875  0.0538  0.3159 -0.0117
    1W        W48331   6.028  21.193   0.280 -0.0506  0.0727 -0.3729
    1W        W48332  20.282   5.111   8.702  0.2792 -0.2203  0.1865
    1W        W48333   3.331  15.485   1.608  0.0947 -0.2552 -0.1023
    1W        W48334  17.252   4.207   8.869  0.0130  0.0492 -0.0838
    1W        W48335  15.709  23.251   0.922 -0.2859  0.1011 -0.1985
    1W        W48336  18.284   8.640   9.141 -0.2203  0.1818 -0.0321
    1W        W48337   4.582  19.027   9.616  0.0034  0.2287 -0.1599
    1W        W48338   2.380  24.160   3.344 -0.1148  0.4254 -0.3336
    1W        W48339  15.555  28.189   2.582 -0.0218  0.2449 -0.0584
    1W        W48340  12.859  13.497   0.836  0.3067 -0.1828  0.0522
    1W        W48341  25.729  14.314   7.064 -0.2220  0.0257 -0.0192
    1W        W48342  25.383  18.264   8.308  0.2635 -0.1012 -0.3495
    1W        W48343   9.807  29.254   0.066  0.4937  0.2017  0.1370
    1W        W48344  21.112  15.140   1.219  0.1239  0.2099 -0.0662
    1W        W48345  20.067  16.807   7.243 -0.2573 -0.0315  0.0761
    1W        W48346   2.076  27.482   7.349 -0.0090 -0.1374 -0.2967
    1W        W48347  22.694  16.784   0.666  0.3982  0.0855  0.0842
    1W        W48348  18.810   2.247   7.795 -0.2214 -0.0606 -0.2830
    1W        W48349   8.659   9.328   7.729 -0.1938  0.1114 -0.0385
    1W        W48350  12.742  14.000   0.954 -0.2947  0.0208 -0.0037
    1W        W48351  25.154  28.222   8.230 -0.0490  0.0106  0.0134
    1W        W48352  15.835  23.600   3.144  0.1392 -0.0860 -0.3230
    1W        W48353  25.009  26.483   0.912 -0.0956 -0.4435  0.1065
    1W        W48354   2.821  15.832   5.862  0.0169  0.1967  0.0932
    1W        W48355   2.491  25.667   0.569 -0.0617  0.0481  0.0694
    1W        W48356   8.257  27.278   1.125 -0.0077  0.4410  0.3372
    1W        W48357  21.858   2.198   0.860 -0.2919 -0.1314  0.0506
    1W        W48358   0.142   1.362   6.513 -0.0998  0.1670 -0.1427
    1W        W48359   1.278   1.151   8.781 -0.2894 -0.0800  0.2334
    1W        W48360   7.533  29.317   0.208  0.0793 -0.2681  0.0619
    1W        W48361   1.587  26.365   8.482  0.1938  0.1121 -0.3514
    1W        W48362  19.152  24.763   8.054 -0.2596 -0.0693  0.0373
    1W        W48363  22.451   0.454   0.474  0.0692 -0.1430  0.1977
    1W        W48364  29.142   7.666   9.613  0.0730  0.0849 -0.1432
    1W        W48365   9.657  29.145   9.189 -0.0994  0.0025  0.1157
    1W        W48366  10.543   5.809   2.672  0.0857 -0.0325 -0.0073
    1W        W48367  23.298   8.193   2.716 -0.1942 -0.1434 -0.2942
    1W        W48368  27.125  13.776   7.386 -0.1848 -0.3572 -0.3416
    1W        W48369  13.514  23.592   9.018 -0.1524 -0.0896 -0.0333
    1W        W48370   0.085  12.596   8.481 -0.1347  0.2720  0.1347
    1W        W48371  20.284  29.018   7.069 -0.4376  0.0923 -0.0994
    1W        W48372  14.956   9.287   2.417  0.0974  0.1305 -0.0973
    1W        W48373   1.236  17.648   1.867  0.2460  0.1501 -0.2615
    1W        W48374  26.873  18.022   7.506 -0.0503 -0.1809 -0.0548
    1W        W48375   3.915  21.909   5.256  0.0369 -0.0821  0.0780
    1W        W48376   7.507  17.337   8.618  0.2088  0.0668 -0.4513
    1W        W48377  14.749  19.522   0.705 -0.0228  0.1070 -0.0188
    1W        W48378   1.455   9.144   7.643  0.0079 -0.1095 -0.2401
    1W        W48379  10.369   9.353   8.733 -0.0309 -0.0952 -0.0561
    1W        W48380  26.813  22.820   8.639 -0.2964  0.1028 -0.2487
    1W        W48381   3.249  20.767   6.185 -0.1937 -0.1164 -0.1196
    1W        W48382  11.615  11.043   8.636 -0.0237  0.0657 -0.0797
    1W        W48383   1.316   5.163   1.314  0.1451  0.1311 -0.0733
    1W        W48384  20.453  27.696   8.997  0.0550 -0.1668  0.0414
    1W        W48385  17.255  23.941   0.670 -0.1965  0.0239  0.0047
    1W        W48386   3.879  19.249   0.803  0.0475  0.0537 -0.0393
    1W        W48387  12.461  22.187   2.435  0.0743 -0.1091  0.1576
    1W        W48388   7.315   9.902   0.042 -0.0887 -0.4219  0.0101
    1W        W48389   9.182  14.878   1.689 -0.0783 -0.1494  0.1210
    1W        W48390   7.932  12.555   1.592  0.1600 -0.1486 -0.2432
    1W        W48391  19.302   1.719   1.901 -0.2595  0.1646  0.2673
    1W        W48392  24.299  15.883   7.866 -0.0982 -0.2970 -0.1469
    1W        W48393  20.025  21.852   7.649 -0.0728  0.0438  0.0691
    1W        W48394  21.964   9.963   2.454 -0.0591 -0.0421  0.2622
    1W        W48395  19.157  25.246   1.320  0.0265  0.2092  0.3899
    1W        W48396   2.259   2.128   9.067  0.2733 -0.3753 -0.3651
    1W        W48397  27.278   5.519   7.979 -0.0270 -0.0212 -0.2058
    1W        W48398   4.568   3.393   8.390 -0.1010 -0.1336 -0.1899
    1W        W48399  13.096   1.936   0.189 -0.2167  0.1389  0.0855
    1W        W48400  11.326   4.938   0.283 -0.1247 -0.2899  0.0949
    1W        W48401   8.231  10.814   1.730 -0.2563 -0.2139 -0.1831
    1W        W48402   5.931   5.110   7.971  0.3634  0.1918 -0.1155
    1W        W48403   9.974  28.831   3.923 -0.0701 -0.1229 -0.2400
    1W        W48404  28.365  22.204   2.399  0.1141  0.0345 -0.1756
    1W        W48405  26.901   4.554   0.699  0.0213 -0.0869 -0.2694
    1W        W48406   1.096  21.239   1.224  0.3345  0.1699 -0.0184
    1W        W48407   5.336   7.646   9.203  0.0466  0.3303 -0.1178
    1W        W48408  19.803  19.492   0.798 -0.0723  0.1015  0.1188
    1W        W48409  20.919  13.253   7.835  0.1488 -0.0104  0.0233
    1W        W48410   9.373   2.315   8.700 -0.0224  0.3719 -0.0553
    1W        W48411  29.343  20.521   8.468  0.1476  0.4074 -0.0534
    1W        W48412  20.161  11.878   9.506  0.1389  0.1320  0.2189
    1W        W48413  13.031  13.407   7.907 -0.2884  0.1522  0.2490
    1W        W48414   0.861  15.440   0.242  0.0326 -0.1581 -0.0761
    1W        W48415  21.673   5.779   8.579  0.0650  0.2103  0.1861
    1W        W48416  17.648  14.854   8.693  0.4765  0.0629  0.0916
    1W        W48417  20.415   6.847   2.571 -0.0983  0.0824  0.1347
    1W        W48418  27.577   4.548   2.867 -0.0037  0.0204  0.1701
    1W        W48419  17.678  26.803   7.994 -0.1198 -0.1741 -0.0260
    1W        W48420   5.925   0.144   8.755  0.0180 -0.3392 -0.0060
    1W        W48421   9.607  23.322   0.060 -0.3078 -0.2042 -0.0960
    1W        W48422  11.552  14.018   9.127  0.0730 -0.2652 -0.0833
    1W        W48423   8.142  13.573   2.083  0.1184 -0.0180  0.3525
    1W        W48424   6.825   0.815   1.255  0.0346  0.1184 -0.1699
    1W        W48425  12.768   3.906   7.185 -0.0096 -0.2225  0.0938
    1W        W48426  23.840  15.384   8.402  0.0412  0.0994 -0.0001
    1W        W48427  10.159   2.576   0.056  0.0643  0.2648  0.2527
    1W        W48428  26.424   3.046   9.534  0.1008  0.0826  0.2078
    1W        W48429  17.377  10.751   2.664 -0.1509  0.0670 -0.2119
    1W        W48430  10.701  16.802   8.960 -0.0971  0.1573 -0.0706
    1W        W48431  24.567  11.489   7.656 -0.1613  0.1847 -0.0025
    1W        W48432  15.578  15.962   2.445 -0.0783  0.3049  0.0368
    1W        W48433  26.312   4.047   1.297 -0.0126 -0.1627  0.3433
    1W        W48434  28.971  21.484   8.520 -0.3512 -0.1147 -0.1248
    1W        W48435  25.555  19.211   0.128  0.1230  0.3029  0.2199
    1W        W48436   4.325   3.033   8.063  0.2032  0.0104  0.1754
    1W        W48437  20.615   4.816   2.121  0.3263 -0.2822 -0.0650
    1W        W48438  11.394   7.095   1.730  0.0171  0.0049  0.0946
    1W        W48439  22.638  23.194   2.924  0.1001 -0.1337  0.1098
    1W        W48440   0.319  26.964   2.178  0.0242 -0.3660  0.2259
    1W        W48441   7.702  11.508   0.305 -0.1959 -0.0748 -0.2761
    1W        W48442  10.221  15.710   7.761 -0.1293 -0.2557  0.1135
    1W        W48443  28.547   5.079   9.666  0.1990  0.2487 -0.0067
    1W        W48444  20.946   2.248   1.350  0.4159  0.0342  0.1377
    1W        W48445  23.467  16.237   2.296 -0.2286  0.0040  0.0170
    1W        W48446  16.009  20.595   1.433 -0.2546  0.0964 -0.1508
    1W        W48447  14.942  16.273   9.648  0.0277 -0.0015 -0.2638
    1W        W48448   7.158   5.249   7.654  0.1980 -0.0771 -0.0850
    1W        W48449   4.846   7.689   2.527 -0.0193 -0.0654  0.2103
    1W        W48450  29.166  28.939   8.586 -0.0382  0.0858 -0.0674
    1W        W48451  18.187  26.608   7.458 -0.3257 -0.0811 -0.2208
    1W        W48452  20.211  21.802   2.311  0.1439  0.1724 -0.1583
    1W        W48453  19.287   5.310   2.584 -0.1493  0.0963  0.0474
    1W        W48454  24.777  21.908   9.499 -0.4909 -0.2678  0.1691
    1W        W48455  25.977   5.722   8.870 -0.0714  0.3109  0.1719
    1W        W48456  24.051  22.640   0.798  0.0848  0.0088  0.1732
    1W        W48457  17.897   0.074   2.276 -0.1398  0.1194 -0.0943
    1W        W48458  20.560   4.630   0.319 -0.1786  0.1185 -0.2042
    1W        W48459  14.000  14.164   1.770 -0.2551  0.1092  0.0931
    1W        W48460  15.548  19.660   1.315 -0.1378  0.3095 -0.2147
    1W        W48461  23.262   2.205   9.622 -0.0362 -0.0098 -0.1770
    1W        W48462  15.723  10.594   2.188 -0.4829 -0.1789 -0.0247
    1W        W48463  27.881   7.130   8.945  0.0011  0.3212 -0.1959
    1W        W48464  17.809  17.227   8.056  0.1999  0.1083 -0.2022
    1W        W48465  18.401  11.096   7.512  0.1131  0.4016 -0.1831
    1W        W48466   9.534  25.011   8.189  0.0687 -0.0031  0.0321
    1W        W48467  19.761  15.165   8.562 -0.0675  0.0194 -0.3259
    1W        W48468   7.103  26.674   7.108 -0.1448 -0.1474 -0.4295
    1W        W48469  17.798  19.330   8.428  0.1426  0.1913 -0.0566
    1W        W48470   9.020  13.111   7.695 -0.0829 -0.0748  0.0569
    1W        W48471  21.373  22.571   1.153  0.0220  0.1663 -0.5703
    1W        W48472  19.434  21.888   2.745 -0.0427 -0.1880  0.0058
    1W        W48473  20.900   1.141   8.909 -0.2951 -0.3674 -0.1950
    1W        W48474   8.646   1.025   7.381  0.0993 -0.1221 -0.1189
    1W        W48475  13.873  12.036   2.265  0.1028  0.2334  0.1218
    1W        W48476   0.695   5.116   6.770 -0.3153 -0.2115  0.4281
    1W        W48477  19.050  21.357   6.359 -0.2841 -0.0268 -0.1887
    1W        W48478   6.588  14.267   6.405 -0.0278 -0.1754  0.1079
    1W        W48479   2.121   2.797   2.471 -0.0692  0.2253  0.0614
    1W        W48480  17.847  28.519   3.749  0.1648 -0.0768 -0.1529
    1W        W48481  14.326   2.909   8.181  0.1937  0.0688  0.1358
    1W        W48482  16.728  17.564   8.362 -0.0657  0.1942 -0.1860
    1W        W48483  20.502  23.604   2.217 -0.1400  0.0752  0.0491
    1W        W48484  13.489  17.822   7.749 -0.0572 -0.2708  0.1246
    1W        W48485  25.181  16.678   1.742  0.0562  0.0578  0.1897
    1W        W48486  17.791  17.043   9.625 -0.1519  0.2637  0.1577
    1W        W48487  13.451  12.689   1.295  0.2082  0.3412  0.1548
    1W        W48488   9.925  27.381   1.774 -0.1362  0.1185 -0.2140
    1W        W48489  18.331  21.447   8.125  0.0008  0.1046 -0.1660
    1W        W48490  11.981  12.196   0.548 -0.1040 -0.1480 -0.0121
    1W        W48491  27.240   0.355   1.601 -0.0598 -0.1139 -0.1924
    1W        W48492  26.323  13.667   9.120 -0.2775 -0.1084 -0.2379
    1W        W48493   0.872  10.541   8.526 -0.0222 -0.3484 -0.3134
    1W        W48494  23.668   3.952   6.461  0.0858  0.0784  0.1485
    1W        W48495  22.200  21.308   8.321  0.0754  0.0402  0.0920
    1W        W48496   3.863  11.776   7.781 -0.1232 -0.0317  0.1806
    1W        W48497  29.313   1.629   3.388 -0.3491 -0.2207  0.1100
    1W        W48498   9.992  22.379   1.058  0.0509 -0.0092 -0.1212
    1W        W48499  21.801  15.622   9.068 -0.1169 -0.1572 -0.0100
    1W        W48500   5.940   1.615   7.320  0.0511  0.0477  0.2991
    1W        W48501  24.516  27.637   8.094  0.0581 -0.0148  0.2268
    1W        W48502   9.662  25.784   1.007  0.1653 -0.1513 -0.1639
    1W        W48503  11.858  26.417   2.812  0.1332 -0.1193 -0.1069
    1W        W48504   6.071  27.380   0.049  0.2861 -0.1811  0.4144
    1W        W48505   5.485  24.063   0.768  0.0320  0.3216  0.0801
    1W        W48506  18.050   0.456   7.640  0.3074  0.2900  0.0783
    1W        W48507  25.231  20.434   9.569  0.0659  0.4453 -0.3640
    1W        W48508   9.666  26.848   3.208 -0.0316  0.0865  0.0251
    1W        W48509   8.080   4.932   1.314  0.0385 -0.0615 -0.2852
    1W        W48510  27.284  22.202   9.015 -0.2255  0.1564 -0.1116
    1W        W48511  12.665   5.533   9.608  0.2505 -0.0017 -0.2009
    1W        W48512  17.940  23.499   6.310  0.1575 -0.2512 -0.0932
    1W        W48513  24.625  19.621   6.307  0.3275 -0.2125 -0.3871
    1W        W48514  25.714  17.293   8.909 -0.1774  0.1732 -0.1095
    1W        W48515   2.765  13.912   2.399 -0.0176  0.3698 -0.0741
    1W        W48516   7.219  21.346   5.904  0.1134  0.0391 -0.0807
    1W        W48517  12.397  14.729   7.432  0.0697 -0.2169  0.1202
    1W        W48518  26.744  20.256   9.318 -0.0224  0.0615 -0.2762
    1W        W48519   1.775  10.303   0.710 -0.0450  0.4037  0.0019
    1W        W48520   6.423  22.631   5.505  0.0315 -0.4889  0.1133
    1W        W48521  14.010  23.863   1.950 -0.1907  0.0860  0.0385
    1W        W48522  20.620  14.790   1.325  0.1222 -0.0709 -0.1177
    1W        W48523  13.226  14.380   8.922 -0.1165  0.2459 -0.0243
    1W        W48524   6.964  26.146   8.395 -0.2352  0.0679  0.0780
    1W        W48525  16.453   6.458   1.745 -0.0886 -0.0307 -0.0861
    1W        W48526  28.622  27.276   1.316 -0.1562  0.2839 -0.0554
    1W        W48527   9.319  17.795   8.746  0.0288  0.0093  0.2239
    1W        W48528  16.129  15.412   8.665  0.0816 -0.1553  0.3126
    1W        W48529  16.714   8.551   1.411 -0.1945 -0.0053  0.1163
    1W        W48530  16.410  26.165   0.602  0.1680  0.3590 -0.2226
    1W        W48531  18.787  28.390   1.567 -0.0804  0.1849  0.0553
    1W        W48532   8.969  24.088   0.617 -0.1487  0.1388 -0.2275
    1W        W48533   4.662  25.846   1.128  0.0381  0.1161 -0.1471
    1W        W48534  28.487   0.609   9.612  0.2427  0.0754  0.0874
    1W        W48535  23.456   2.352   2.898  0.0354 -0.0422 -0.0479
    1W        W48536   0.629  29.317   8.951 -0.0487  0.1005  0.0981
    1W        W48537  21.534  14.778   1.444  0.1215 -0.0162  0.1404
    1W        W48538  14.385   1.335   2.548 -0.0960  0.3207 -0.0246
    1W        W48539   3.476  19.070   7.336 -0.1678 -0.0272  0.1551
    1W        W48540   2.293  24.289   6.774  0.0055  0.0527  0.2422
    1W        W48541   5.762   1.799   8.996 -0.0826  0.3803 -0.0864
    1W        W48542  18.705  24.978   6.972 -0.1116 -0.0893 -0.0451
    1W        W48543  14.355  21.831   0.802 -0.2671  0.2087 -0.2166
    1W        W48544   3.744  23.494   1.507 -0.1157 -0.2328  0.1016
    1W        W48545  10.471  19.112   2.643  0.1357 -0.0231 -0.0168
    1W        W48546  14.747   7.701   8.643  0.0888 -0.0308  0.0084
    1W        W48547  25.433  14.788   6.888 -0.0940  0.0791  0.0258
    1W        W48548  14.163  13.929   7.467 -0.2327  0.1931 -0.0372
    1W        W48549  28.680  17.973   9.467 -0.1933  0.1743  0.3046
    1W        W48550  27.896  17.642   6.522  0.3825  0.0141 -0.1434
    1W        W48551  10.457  10.023   0.291 -0.2530 -0.0374  0.0519
    1W        W48552  28.069   9.157   1.378 -0.3047 -0.2858  0.0420
    1W        W48553  27.055  22.443   9.560 -0.2777 -0.4504 -0.0539
    1W        W48554   1.206   2.819   2.251  0.0603  0.0455 -0.0766
    1W        W48555   9.516   1.358   0.328 -0.2298 -0.0978 -0.0244
    1W        W48556  21.778  25.180   7.991  0.0156 -0.1412 -0.1696
    1W        W48557   3.220   1.169   7.805 -0.2202 -0.0896 -0.0443
    1W        W48558   3.798  27.927   7.272  0.1355 -0.0084  0.2562
    1W        W48559   4.056  27.724   8.665 -0.2634 -0.1150 -0.0758
    1W        W48560  20.654  16.242   8.327  0.2047 -0.2122  0.0457
    1W        W48561  21.186  22.212   7.997  0.1133  0.0124 -0.2414
    1W        W48562  17.754  17.979   2.311 -0.2021  0.0208  0.0657
    1W        W48563  28.461  23.619   6.372  0.0774 -0.3244 -0.0739
    1W        W48564   0.034   7.697   8.610 -0.1171 -0.3458  0.0253
    1W        W48565  12.946  15.530   2.498  0.0763  0.0830  0.0819
    1W        W48566  15.022  15.063   8.480  0.0976  0.1700 -0.1520
    1W        W48567  12.316   0.958   0.338 -0.1062 -0.2466  0.3921
    1W        W48568   1.912   4.472   7.494 -0.1723 -0.0888 -0.2058
    1W        W48569  21.062  29.068   7.379  0.0771  0.2186 -0.1307
    1W        W48570  26.567  14.003   8.878 -0.2356  0.0889 -0.0676
    1W        W48571   6.076  11.513   2.592 -0.0737  0.0367  0.0665
    1W        W48572  16.532  27.231   8.096  0.0415  0.2014 -0.0979
    1W        W48573  16.965   2.661   8.909 -0.0097 -0.2316 -0.0609
    1W        W48574   5.047  14.190   6.645 -0.1536 -0.2670 -0.1367
    1W        W48575  18.285  12.228   1.646  0.0320 -0.0622  0.1341
    1W        W48576  17.507   1.225   0.174 -0.0592 -0.2963 -0.3519
    1W        W48577   6.934  27.030   9.399 -0.1629  0.1113  0.0505
    1W        W48578   7.493  27.046   7.906 -0.3113 -0.0008 -0.3268
    1W        W48579   9.376   7.330   8.359 -0.2445  0.2255 -0.2225
    1W        W48580   3.587  17.449   9.681 -0.0002  0.0845 -0.0448
    1W        W48581  11.650   4.222   3.369  0.1235  0.0945  0.2710
    1W        W48582   0.182  22.720   5.965  0.1780 -0.0854  0.2030
    1W        W48583   8.543  24.600   8.130 -0.0808  0.0026  0.2641
    1W        W48584  20.585  14.209   8.983  0.1193  0.0638  0.0622
    1W        W48585   9.529  26.418   2.798 -0.5066  0.1057  0.0025
    1W        W48586   6.014  28.439   1.286  0.0797  0.0923  0.1673
    1W        W48587  25.364   7.149   0.603  0.0925  0.0127  0.0232
    1W        W48588  23.722   6.018   1.352 -0.0687  0.2539 -0.2662
    1W        W48589   8.246  26.112   0.790 -0.0908  0.1143  0.4141
    1W        W48590  13.398  22.750   0.675 -0.0358 -0.1975 -0.1756
    1W        W48591  28.289  27.645   1.419 -0.1170  0.2902 -0.0486
    1W        W48592  14.756  29.318   0.359  0.2758 -0.2303 -0.1177
    1W        W48593  27.160  11.519   0.016 -0.1296 -0.0667  0.1933
    1W        W48594   7.073  23.107   0.282  0.0465 -0.0149 -0.1218
    1W        W48595   5.110  15.083   7.197  0.1252  0.0599  0.2425
    1W        W48596   3.644   9.664   0.780 -0.1849  0.0169 -0.2250
    1W        W48597  20.748  16.273   9.537  0.0533  0.2790 -0.0493
    1W        W48598   5.299  22.761   9.338 -0.4507  0.3728 -0.0236
    1W        W48599  22.648  15.818   7.134  0.0120 -0.1497 -0.1261
    1W        W48600  26.422  20.596   6.714 -0.0749  0.1478  0.3649
    1W        W48601  19.253  12.574   9.488  0.3683 -0.0725 -0.1719
    1W        W48602  19.084  23.610   2.164  0.0993  0.0287 -0.0123
    1W        W48603  18.511  18.661   9.036  0.0576  0.0524  0.2205
    1W        W48604   5.043   5.985   0.398  0.2820  0.1513 -0.0028
    1W        W48605  22.428   2.085   9.292 -0.0255 -0.2338  0.0103
    1W        W48606  22.440  27.896   2.323  0.0219  0.2689  0.0513
    1W        W48607   2.398  28.219   9.022 -0.3038 -0.0027  0.1692
    1W        W48608  25.644  13.899   8.796  0.0407 -0.1437 -0.1531
    1W        W48609  10.954   8.538   9.497 -0.0568 -0.0196 -0.1269
    1W        W48610  19.962  25.970   0.274 -0.0637  0.1297 -0.0997
    1W        W48611   0.829  13.943   1.873 -0.1184 -0.1078 -0.1035
    1W        W48612   1.009  12.805   0.445 -0.3820 -0.0342 -0.2255
    1W        W48613   8.765   8.010   2.273 -0.1410 -0.1704  0.0902
    1W        W48614  15.761  26.951   8.334 -0.0264  0.1857 -0.1331
    1W        W48615  21.648  12.497   1.284  0.3124  0.4504  0.0746
    1W        W48616   9.518   0.794   7.174  0.1721 -0.2263 -0.0692
    1W        W48617  10.289  29.301   3.080  0.2092  0.2193 -0.1472
    1W        W48618  21.654  19.946   1.495 -0.1315  0.3260  0.2619
    1W        W48619  13.812  12.726   9.353 -0.3379  0.2733  0.0630
    1W        W48620   7.090  24.769   2.175 -0.2991 -0.0700  0.0876
    1W        W48621  20.950   9.914   3.053  0.2737 -0.1251  0.1003
    1W        W48622  27.876  28.843   2.357 -0.0153 -0.2312 -0.2893
    1W        W48623  22.749  17.265   7.381 -0.0164 -0.0126 -0.0629
    1W        W48624  19.248   3.142   6.483 -0.1586 -0.0276  0.3370
    1W        W48625  14.563  13.632   7.281 -0.1812  0.0010 -0.1261
    1W        W48626   6.366  18.443   8.628 -0.2022 -0.0607  0.1162
    1W        W48627  20.639  20.842   7.216 -0.2646  0.0479  0.0284
    1W        W48628  21.853  21.287   9.601  0.1958  0.1828  0.0204
    1W        W48629   1.784   6.659   0.363  0.2985 -0.0287 -0.0994
    1W        W48630  29.265   3.032   7.360 -0.1488  0.3800  0.2633
    1W        W48631  11.291   8.853   2.838  0.2123 -0.0347  0.1403
    1W        W48632  26.621   3.414   1.593  0.1246 -0.2235  0.0038
    1W        W48633   0.270  28.015   6.187 -0.2039  0.0839  0.0399
    1W        W48634  28.658  28.386   7.030  0.0476 -0.2181 -0.3424
    1W        W48635  20.969   4.296   9.688 -0.0108  0.0390  0.1469
    1W        W48636  13.706  29.032   0.155  0.3251 -0.0044  0.0549
    1W        W48637   1.517  27.237   1.130 -0.0466  0.2178 -0.1945
    1W        W48638  20.229   5.688   1.385 -0.2153 -0.0259 -0.0771
    1W        W48639   8.717  23.018   1.500 -0.3063  0.1682  0.0328
    1W        W48640  22.852  14.326   1.659 -0.0802 -0.2079  0.3020
    1W        W48641  10.415  10.686   1.895  0.0498  0.1966  0.0406
    1W        W48642   4.552  19.191   6.621 -0.1959 -0.2502 -0.2714
    1W        W48643   2.833   3.019   1.675 -0.1639 -0.0460  0.0945
    1W        W48644   5.235   0.570   2.600 -0.0376 -0.1986  0.0183
    1W        W48645  15.332  19.679   9.530 -0.1639  0.0364  0.1108
    1W        W48646   9.753  29.204   3.026 -0.0180 -0.2440 -0.0662
    1W        W48647   8.989   2.592   7.700  0.0295  0.0012 -0.0236
    1W        W48648   2.677  14.660   7.462 -0.1837 -0.0709  0.0850
    1W        W48649   9.379   8.098   0.822  0.0814 -0.3484  0.0179
    1W        W48650  10.956  18.137   0.021  0.0939  0.3109 -0.0882
    1W        W48651   5.336  17.895   6.274 -0.2141  0.0509 -0.1264
    1W        W48652   7.998   3.697   8.247  0.3206  0.1464 -0.1088
    1W        W48653  27.372  19.557   1.105 -0.0121  0.0789  0.1237
    1W        W48654  21.372  14.995   9.688  0.2355  0.0778  0.0728
    1W        W48655   5.619   3.137   8.176 -0.2035 -0.3337  0.1520
    1W        W48656  23.549  16.876   8.397 -0.2074  0.0737  0.1657
    1W        W48657   7.808   6.672   0.484  0.0703  0.0626  0.3997
    1W        W48658   6.633  21.654   6.484  0.3069  0.1654  0.1376
    1W        W48659  23.743   0.277   9.231  0.3038 -0.0909  0.1091
    1W        W48660  20.153  27.673   6.602  0.2518 -0.0350  0.1282
    1W        W48661  22.814  27.194   1.854 -0.2399 -0.1439  0.0497
    1W        W48662  24.514  12.458   0.511  0.0352  0.3387  0.2511
    1W        W48663   1.051  26.550   2.824  0.0267  0.0167  0.0681
    1W        W48664  15.803  20.897   2.379 -0.0200  0.1272  0.0277
    1W        W48665   1.959  24.736   0.415  0.2666  0.3760 -0.1813
    1W        W48666  23.731  27.259   7.180 -0.1909  0.2386  0.1830
    1W        W48667   4.018  13.378   9.047 -0.0491  0.0098  0.0545
    1W        W48668  11.319  18.037   8.852  0.0296  0.2465  0.2188
    1W        W48669   8.960  23.512   6.261 -0.0237  0.0454  0.0647
    1W        W48670  11.870  23.161   7.766  0.0629 -0.1501  0.0985
    1W        W48671  26.349   4.716   2.959  0.1999  0.1797 -0.2101
    1W        W48672   7.427  27.913   2.392  0.3802 -0.4789  0.3070
    1W        W48673   4.032  23.065   2.437 -0.1884  0.0134 -0.5427
    1W        W48674  12.173  20.729   9.225  0.2150 -0.3724 -0.3515
    1W        W48675   9.597  26.971   0.068 -0.0853 -0.2217  0.1735
    1W        W48676  16.884  20.603   7.207  0.1528  0.1969  0.0112
    1W        W48677  29.082  26.501   1.797 -0.0132  0.0875 -0.1491
    1W        W48678  27.501  28.321   6.277 -0.0856  0.2075  0.1332
    1W        W48679   4.623  28.046   2.717  0.0984  0.1012  0.1261
    1W        W48680  11.053  19.694   8.237 -0.0884  0.1548  0.2213
    1W        W48681  17.789  21.247   0.863  0.2218 -0.2394  0.0611
    1W        W48682   0.801  27.126   2.236 -0.0503  0.1705  0.0353
    1W        W48683  11.000   5.112   1.086  0.1024  0.0027 -0.3963
    1W        W48684  25.518  19.330   1.231 -0.1913 -0.2659 -0.3261
    1W        W48685   6.645  19.452   8.966  0.2744  0.1005  0.1244
    1W        W48686   7.618  18.150   0.144  0.1136 -0.1454  0.1058
    1W        W48687   3.777   3.213   7.927  0.1473  0.1081 -0.1609
    1W        W48688   4.547  11.992   6.821 -0.2320 -0.0719  0.0658
    1W        W48689   9.511  12.186   1.653 -0.1928  0.0338 -0.1518
    1W        W48690   5.507  18.047   0.941  0.1291  0.1706 -0.3054
    1W        W48691  29.082   5.033   7.465  0.0831  0.0988  0.0480
    1W        W48692   5.764   8.831   1.593 -0.2927 -0.2766  0.1148
    1W        W48693  11.396   3.894   2.199 -0.2981 -0.0282  0.0744
    1W        W48694  10.895   4.140   7.177  0.2389 -0.1881 -0.0520
    1W        W48695  18.128  24.204   2.298  0.0594 -0.0677 -0.1838
    1W        W48696  29.188  23.558   8.286 -0.0897  0.0549  0.0649
    1W        W48697  11.588  26.688   3.286  0.0191 -0.0324  0.1902
    1W        W48698  27.602   9.119   1.492 -0.3897 -0.2282 -0.1328
    1W        W48699  10.395   4.235   0.266 -0.1506  0.0182 -0.0520
    1W        W48700   1.880   3.206   0.434  0.2499 -0.1995 -0.0576
    1W        W48701   3.041  27.743   9.425 -0.0914 -0.0386  0.0085
    1W        W48702  13.806  29.108   3.841 -0.0273  0.2245  0.1008
    1W        W48703   0.917   0.072   7.368  0.0479 -0.0231 -0.0601
    1W        W48704  24.840   6.789   1.648 -0.0857 -0.0714  0.0667
    1W        W48705  17.710  21.700   0.333 -0.1786 -0.2114 -0.0146
    1W        W48706   4.931   5.455   9.530  0.0953  0.0697 -0.3107
    1W        W48707   0.094  17.061   1.282 -0.5321 -0.0076  0.1682
    1W        W48708   3.986  16.033   1.341 -0.0614  0.1035  0.1641
    1W        W48709  25.098  12.156   2.144 -0.0704 -0.2865 -0.0571
    1W        W48710  26.111  14.919   1.354 -0.1681 -0.2007 -0.1020
    1W        W48711  14.158  23.218   8.329 -0.0278 -0.0661 -0.1603
    1W        W48712  28.779  18.860   6.874 -0.0937  0.0234  0.1336
    1W        W48713   0.787  27.966   0.711  0.2929 -0.2116 -0.1071
    1W        W48714   7.297  23.258   7.560  0.0050  0.0590 -0.0745
    1W        W48715   3.851  21.179   8.507  0.1685  0.0872  0.0468
    1W        W48716  17.915  14.164   7.313  0.1155  0.2820 -0.1263
    1W        W48717  23.495  15.876   0.986  0.0846  0.0188 -0.0864
    1W        W48718  19.728  15.034   1.813 -0.0600  0.0207  0.0318
    1W        W48719  12.241   6.586   2.795 -0.1518  0.1878  0.2971
    1W        W48720  16.982  28.061   8.114 -0.0695  0.1909  0.3452
    1W        W48721  24.106  24.629   7.850  0.4047  0.1352 -0.1338
    1W        W48722  13.164   6.725   9.324 -0.5005 -0.1608 -0.2639
    1W        W48723  27.284  27.664   7.496 -0.0944  0.1713  0.1172
    1W        W48724  19.411  15.192   7.414 -0.1005  0.1722 -0.0377
    1W        W48725   3.711   0.273   1.100 -0.1044 -0.0249  0.3668
    1W        W48726   4.270  12.678   0.776 -0.4437 -0.1118 -0.0527
    1W        W48727   4.091   9.181   2.955 -0.0307 -0.2435 -0.1877
    1W        W48728   1.456  12.846   0.805 -0.1743 -0.0580 -0.2453
    1W        W48729   1.362  21.161   6.467  0.0892  0.1004 -0.1760
    1W        W48730  11.942  19.410   0.818  0.0979  0.0298 -0.0535
    1W        W48731   9.082   6.291   7.637  0.1617 -0.3499  0.0306
    1W        W48732  26.270  16.534   8.364 -0.2036  0.1138  0.2637
    1W        W48733  19.173  11.118   9.124  0.0625 -0.0405  0.2045
    1W        W48734  18.754  17.076   0.529 -0.1010  0.0700 -0.0086
    1W        W48735  26.512  20.140   0.243 -0.0821  0.0534  0.1517
    1W        W48736  26.863   3.406   0.739  0.1164 -0.0749  0.4479
    1W        W48737  21.966   7.019   0.326 -0.0353  0.3078  0.0797
    1W        W48738  26.594   4.793   1.046  0.0353 -0.0226  0.0286
    1W        W48739  15.876  21.084   1.551  0.4762 -0.1265 -0.0496
    1W        W48740  26.112  11.596   6.671 -0.1047  0.0993  0.0420
    1W        W48741  28.945  23.676   0.819 -0.0376 -0.1107  0.0885
    1W        W48742  23.677  23.450   0.708 -0.1119  0.1321  0.1811
    1W        W48743   7.480  22.313   7.232 -0.3877 -0.0076 -0.3536
    1W        W48744  23.973   9.636   5.946  0.0345  0.3341 -0.1204
    1W        W48745  23.522   1.117   0.108 -0.1460 -0.0608 -0.1991
    1W        W48746   4.526   2.531   2.221 -0.0926 -0.0894 -0.3155
    1W        W48747  14.527  16.792   0.300  0.0798  0.0413 -0.1621
    1W        W48748  25.929  16.813   0.143  0.2511  0.2602 -0.2622
    1W        W48749  20.166   7.366   9.555  0.0127 -0.0220  0.1632
    1W        W48750   6.120   7.313   2.662  0.1690  0.1460 -0.1074
    1W        W48751  17.442  24.323   9.528 -0.0231  0.4522  0.3593
    1W        W48752  19.072   2.812   1.589 -0.1603 -0.1264 -0.1254
    1W        W48753  11.786  26.527   9.005  0.2239 -0.1508 -0.0155
    1W        W48754  26.789  15.258   7.782 -0.0285  0.0066 -0.1977
    1W        W48755  25.720   1.991   8.195  0.4591 -0.2477  0.0018
    1W        W48756  20.655  24.218   0.657 -0.2961  0.0956  0.3367
    1W        W48757   1.572   5.807   5.693  0.1655  0.0249  0.1693
    1W        W48758  27.516  24.859   8.683  0.1652  0.0266  0.5921
    1W        W48759   9.716   1.258   1.266 -0.0702  0.0205 -0.4040
    1W        W48760  11.828  21.243   8.302  0.1609  0.2569 -0.2822
    1W        W48761   3.988   3.503   6.511 -0.0371 -0.3389 -0.0718
    1W        W48762  16.094   4.232   2.697 -0.1014 -0.0975  0.1550
    1W        W48763  12.016  10.811   8.514  0.0827  0.0363 -0.0619
    1W        W48764  11.795  12.914   9.071  0.1124 -0.1130 -0.0012
    1W        W48765  21.071   8.049   3.059 -0.0549  0.1843  0.0349
    1W        W48766  12.071  14.303   0.507  0.0339  0.1940  0.1908
    1W        W48767  13.266  22.304   6.811  0.1236 -0.3136  0.2970
    1W        W48768  22.130   4.246   8.365 -0.0564 -0.0929  0.3024
    1W        W48769   3.875  26.012   2.304  0.2611 -0.0506  0.1239
    1W        W48770  20.161  13.993   8.675 -0.1318  0.0734  0.3737
    1W        W48771  18.179  14.084   0.987 -0.0480  0.1147  0.1504
    1W        W48772  25.957   6.335   0.903 -0.3362  0.3322 -0.0863
    1W        W48773  16.041   3.759   8.858  0.0092 -0.0546  0.0698
    1W        W48774  23.563   7.453   3.035  0.1610 -0.1990  0.1099
    1W        W48775  25.456  22.816   6.646 -0.2136  0.1536  0.0076
    1W        W48776  28.269  17.879   3.056 -0.1584  0.0432 -0.0179
    1W        W48777   8.148   7.673   7.699  0.3385 -0.1951 -0.3222
    1W        W48778  26.569  16.209   9.288 -0.1880  0.2543 -0.0367
    1W        W48779   8.301  27.920   0.974 -0.0520 -0.1300 -0.0541
    1W        W48780  11.056   4.717   2.309  0.3830 -0.1301 -0.2084
    1W        W48781  15.443  25.903   9.446  0.0996  0.0481 -0.1826
    1W        W48782  19.186  11.536   7.572  0.1632  0.0252  0.1591
    1W        W48783   4.975  19.780   1.398  0.4053 -0.2944  0.1962
    1W        W48784  26.299  23.466   1.283 -0.1719 -0.1714  0.0998
    1W        W48785  15.165  19.291   9.124 -0.0611  0.2862 -0.2468
    1W        W48786  20.044  24.421   8.681  0.0531  0.0313 -0.1159
    1W        W48787   3.486  19.439   6.989  0.0581  0.0848 -0.1166
    1W        W48788  21.944  23.297   9.072 -0.1821 -0.1520 -0.1733
    1W        W48789  13.819  12.514   0.255 -0.3414  0.0384  0.4219
    1W        W48790   3.790  25.475   9.589 -0.0676  0.0115 -0.3831
    1W        W48791   3.831  15.815   9.105  0.0111 -0.3727  0.0706
    1W        W48792   5.545  27.274   2.612  0.2657  0.0526  0.0077
    1W        W48793  12.792  27.409   3.959  0.1887 -0.0625 -0.1461
    1W        W48794   1.294  23.521   7.860  0.2055  0.0390 -0.3479
    1W        W48795  15.091   0.064   3.362 -0.0958 -0.3373 -0.2607
    1W        W48796  28.146   5.103   0.833  0.1333 -0.4186  0.4581
    1W        W48797   4.414  23.529   6.203  0.3987 -0.1541  0.0180
    1W        W48798  26.058   8.190   9.674 -0.4231  0.1820 -0.0734
    1W        W48799   6.041  11.262   6.257  0.0937  0.2170 -0.0914
    1W        W48800   4.857  17.440   8.631  0.1653 -0.0460  0.2190
    1W        W48801  14.861   4.926   0.134 -0.1448 -0.1645  0.1582
    1W        W48802  20.415  14.920   0.023  0.1252 -0.0003 -0.3422
    1W        W48803   3.779  24.064   1.301 -0.0542  0.1358 -0.0521
    1W        W48804   6.582  21.151   0.951 -0.3075  0.2797  0.1858
    1W        W48805  10.215  27.758   0.409 -0.0664  0.1611 -0.2269
    1W        W48806  24.765  15.966   8.151  0.1943  0.0728 -0.1670
    1W        W48807   6.756  20.941   0.517 -0.1347 -0.4185 -0.1182
    1W        W48808  13.880  23.229   2.816  0.0218  0.0925  0.1008
    1W        W48809   5.903   6.537   3.253  0.3565 -0.1152  0.0909
    1W        W48810   9.703  25.091   2.462 -0.0012 -0.1658  0.0860
    1W        W48811   5.938   8.685   7.309  0.0687  0.0387 -0.1193
    1W        W48812  25.812  23.096   0.098  0.0871  0.0996  0.0105
    1W        W48813  17.543  24.221   9.022 -0.1382  0.0066 -0.0495
    1W        W48814  12.636  22.750   2.366  0.1875 -0.1731 -0.1355
    1W        W48815  24.999  20.481   9.133  0.3512  0.0858  0.2764
    1W        W48816  18.828  12.517   8.148  0.2005  0.0737 -0.0552
    1W        W48817  17.171   4.827   9.246 -0.3602  0.1158 -0.3911
    1W        W48818  27.769   7.549   9.240 -0.1179  0.1181  0.0193
    1W        W48819  20.090   1.957   0.374  0.2268  0.0790 -0.0708
    1W        W48820  20.283  22.131   1.683  0.1810 -0.0662  0.0279
    1W        W48821  10.089  19.354   8.414 -0.4528 -0.3654 -0.0301
    1W        W48822   5.070   3.060   0.386 -0.0353 -0.0477  0.3397
    1W        W48823  23.141  27.935   7.121 -0.0786  0.0272 -0.1375
    1W        W48824   0.639   9.842   6.168 -0.1369 -0.1112  0.0750
    1W        W48825   1.077   0.458   2.608  0.1659  0.1739  0.1391
    1W        W48826  20.174   2.903   1.662  0.0962 -0.5254 -0.1845
    1W        W48827  27.154  15.179   8.152  0.3690 -0.0135  0.0566
    1W        W48828  24.668   3.713   7.800  0.0155 -0.0260 -0.0838
    1W        W48829  26.156  20.125   1.493  0.1870 -0.0110 -0.1333
    1W        W48830  27.175   9.880   6.395 -0.2804  0.0543 -0.1386
    1W        W48831  25.240   5.557   8.395 -0.1572  0.2079 -0.1336
    1W        W48832  16.807  12.732   1.055  0.1385  0.1578  0.1740
    1W        W48833   7.520  16.301   9.273 -0.0744 -0.0614 -0.3577
    1W        W48834  21.460  29.076   1.680 -0.2015  0.1497  0.0685
    1W        W48835   1.089  28.329   7.470 -0.2918  0.0994 -0.0941
    1W        W48836  14.368   3.343   1.160  0.2242  0.0744  0.3019
    1W        W48837  14.519   3.363   3.428 -0.1753 -0.2416 -0.0755
    1W        W48838  27.878   6.298   8.770 -0.0932 -0.3039 -0.3019
    1W        W48839   6.133  22.444   2.002 -0.0601  0.1295  0.3427
    1W        W48840  24.131  10.911   1.774  0.0174 -0.0888 -0.4006
    1W        W48841  11.152   7.418   2.637  0.0929  0.0631 -0.0815
    1W        W48842  22.150  24.121   9.610  0.1325  0.3393  0.0811
    1W        W48843  23.829  22.024   2.458  0.2776 -0.1278 -0.1730
    1W        W48844   6.221  27.158   1.691  0.1152 -0.0624 -0.4577
    1W        W48845  21.387  18.740   2.916  0.1046  0.0032 -0.1704
    1W        W48846   6.769   0.362   9.369 -0.2423 -0.0653  0.2196
    1W        W48847  22.501  28.768   2.518  0.2114 -0.0770  0.1461
    1W        W48848  23.491  16.910   0.102  0.1148 -0.0419  0.1643
    1W        W48849  18.150  27.392   2.047 -0.1486  0.0297  0.3270
    1W        W48850   5.352  15.439   6.957 -0.0138  0.0893 -0.1664
    1W        W48851   9.960  24.214   0.529 -0.3085 -0.4617 -0.0783
    1W        W48852  10.224  13.717   6.549 -0.2304  0.1291  0.1492
    1W        W48853   7.884  26.263   6.767 -0.0282  0.1913  0.0739
    1W        W48854  17.181   6.111   9.482  0.1621 -0.0440 -0.2342
    1W        W48855  12.398  27.624   2.381  0.1778  0.1736 -0.3033
    1W        W48856  12.572  16.281   9.104  0.0121  0.2235  0.3031
    1W        W48857  21.258  24.273   9.506 -0.0213 -0.0124 -0.2618
    1W        W48858   3.708   8.695   7.606  0.1096 -0.0930 -0.1070
    1W        W48859   9.015  26.143   3.117  0.1073  0.2105  0.3668
    1W        W48860  14.615  22.132   6.940 -0.2187  0.0575  0.0157
    1W        W48861  28.530  20.063   7.252 -0.1592  0.1980 -0.2176
    1W        W48862  25.984   9.432   7.198 -0.1310 -0.1524 -0.4847
    1W        W48863   4.753  12.082   7.293 -0.3390  0.0233 -0.2104
    1W        W48864  27.039  19.915   6.325 -0.2352  0.0260 -0.1760
    1W        W48865   6.718   1.750   1.124  0.2494 -0.0865 -0.0180
    1W        W48866  26.498  24.269   6.013  0.1183  0.1401 -0.1807
    1W        W48867  26.942   9.141   7.870 -0.2535 -0.0677 -0.1537
    1W        W48868  24.890  28.334   2.085 -0.0061 -0.0036  0.1623
    1W        W48869  28.923   7.418   2.212 -0.1490 -0.2905 -0.2317
    1W        W48870  17.966  20.021   2.569  0.0960  0.0427 -0.2125
    1W        W48871  15.998   0.918   2.769  0.2304 -0.0941 -0.3219
    1W        W48872  19.992  12.291   0.109  0.0148  0.1804 -0.2211
    1W        W48873  13.728  13.013   0.364 -0.0512 -0.0518 -0.4038
    1W        W48874   5.511  22.086   6.707  0.2512  0.0591  0.1190
    1W        W48875   2.444  24.706   1.274 -0.2458  0.1688  0.2289
    1W        W48876  24.861   8.606   6.965  0.2965 -0.0657  0.0742
    1W        W48877   3.812  11.740   1.775 -0.0070  0.0894  0.1365
    1W        W48878  26.686   7.450   9.426 -0.1482 -0.0254  0.0382
    1W        W48879  10.834   1.417   9.384  0.2127 -0.2067  0.1209
    1W        W48880  23.150   1.388   0.447  0.0196  0.0997  0.1965
    1W        W48881  28.431  24.018   0.415 -0.0097 -0.3379  0.0396
    1W        W48882  28.982  27.985   2.815  0.0137  0.0067  0.0470
    1W        W48883  25.872  18.326   9.376  0.2330 -0.0634 -0.0412
    1W        W48884  16.789  13.839   0.205 -0.1444  0.0048 -0.0474
    1W        W48885  24.345   8.998   6.387 -0.1279  0.1535 -0.0580
    1W        W48886  16.212   2.166   0.663 -0.0624  0.1689  0.1934
    1W        W48887   8.357  27.011   3.005 -0.0003 -0.1548 -0.0246
    1W        W48888  25.917  11.824   8.082  0.2466  0.1217  0.0152
    1W        W48889  21.984   0.283   8.183  0.0646 -0.1114  0.2459
    1W        W48890   9.602   9.162   0.841  0.0891 -0.2443 -0.1807
    1W        W48891   2.738  14.871   0.674  0.5178  0.0089  0.1224
    1W        W48892  24.698  11.377   1.059  0.0870  0.1602  0.2216
    1W        W48893  22.716  25.979   7.158  0.0058  0.0090 -0.0981
    1W        W48894   8.867  15.522   1.358  0.1149  0.0903  0.0313
    1W        W48895   2.422  28.102   7.860  0.0283  0.0700  0.0700
    1W        W48896  26.187  22.154   9.137  0.1296  0.1842  0.2448
    1W        W48897   2.626  16.254   0.540 -0.2329 -0.0801 -0.1785
    1W        W48898  10.825  23.469   1.435 -0.2299 -0.0820 -0.1641
    1W        W48899  25.915  21.969   7.703  0.0335 -0.0530  0.1272
    1W        W48900  26.806  11.870   0.367 -0.1259  0.2129 -0.4031
    1W        W48901  10.020  27.133   2.988 -0.4332 -0.0421 -0.1742
    1W        W48902  18.357  26.105   7.096  0.1395  0.2621  0.1653
    1W        W48903  18.310   1.642   9.645  0.0147 -0.1567 -0.1338
    1W        W48904   4.317  24.891   6.091  0.3430  0.0074 -0.0593
    1W        W48905  22.138  20.218   1.588 -0.1336  0.3960  0.0487
    1W        W48906   2.740   8.904   9.520 -0.1702  0.0199 -0.0888
    1W        W48907  29.101  17.381   1.969  0.1176  0.4521  0.1374
    1W        W48908  26.837   3.644   1.968 -0.1019  0.2143 -0.2064
    1W        W48909  27.162  22.168   8.452  0.0396  0.0086 -0.0943
    1W        W48910  21.934   7.153   7.474 -0.2146  0.0165  0.1496
    1W        W48911  16.335   2.766   2.683  0.0544  0.0533 -0.1936
    1W        W48912  19.322   7.223   2.514 -0.3909  0.0775 -0.3484
    1W        W48913  11.857  21.097   9.132  0.1026  0.1714  0.1599
    1W        W48914  27.164  13.735   9.589  0.4487  0.7799 -0.2294
    1W        W48915   5.652   2.862   9.415  0.2111  0.1261 -0.1030
    1W        W48916  19.443  21.601   6.565 -0.2069 -0.1707 -0.3390
    1W        W48917  10.643  16.390   1.530 -0.2119 -0.2742  0.1102
    1W        W48918   6.763   9.709   1.993  0.2997 -0.4622  0.0467
    1W        W48919   0.048  22.128   9.271  0.0616 -0.2300 -0.4935
    1W        W48920  20.025  27.749   0.911 -0.0928 -0.1992  0.1858
    1W        W48921  20.248  24.323   7.370  0.0211  0.1927  0.0523
    1W        W48922  26.805  26.852   9.035  0.2279  0.1987 -0.3362
    1W        W48923  10.395  23.321   1.680  0.0860 -0.0987 -0.2063
    1W        W48924  17.577   1.348   6.543  0.1163 -0.2295  0.0602
    1W        W48925   9.367  14.967   2.199  0.2044 -0.1732 -0.0747
    1W        W48926   9.671  19.692   9.253  0.2001 -0.0062 -0.1645
    1W        W48927  13.601   2.698   3.276  0.2195  0.1442 -0.1381
    1W        W48928  19.574  18.492   0.057  0.0433  0.0671 -0.1184
    1W        W48929  22.959   5.513   3.144  0.0567 -0.0939  0.0537
    1W        W48930   3.618  21.846   6.238  0.1053  0.0546  0.1782
    1W        W48931  25.405  27.957   7.862 -0.0847  0.0579  0.3675
    1W        W48932  27.587  24.054   0.513  0.3412 -0.1276  0.0006
    1W        W48933   0.779  20.173   1.809  0.0410 -0.3954 -0.0492
    1W        W48934  25.978  15.386   7.166 -0.0393  0.1727 -0.0883
    1W        W48935  20.974  25.236   1.684  0.0747  0.1762  0.2498
    1W        W48936  18.241   6.234   0.503  0.1157  0.0223 -0.1269
    1W        W48937   3.806  21.446   9.610 -0.2983  0.1494 -0.0940
    1W        W48938   9.862  14.171   7.757  0.2779 -0.0053  0.2363
    1W        W48939  27.611  20.846   7.741 -0.0313 -0.4179 -0.1448
    1W        W48940   8.292  24.689   0.153 -0.2111 -0.1882 -0.1301
    1W        W48941  18.602   0.523   8.383 -0.2003  0.0771 -0.0563
    1W        W48942  26.364  18.548   1.355 -0.1699 -0.0332 -0.1870
    1W        W48943  27.986  24.687   0.055 -0.0875  0.1322 -0.1058
    1W        W48944   0.489  14.115   5.738 -0.2814  0.0173 -0.0773
    1W        W48945  22.611  11.084   2.487  0.0612 -0.1903 -0.1406
    1W        W48946  16.591   5.738   0.960  0.0674  0.0971  0.2550
    1W        W48947  24.583  13.397   0.016 -0.0230  0.1048 -0.0884
    1W        W48948  15.881  29.336   2.742 -0.1340  0.1318 -0.0834
    1W        W48949  21.165   7.084   1.807 -0.0284  0.0829 -0.4997
    1W        W48950   9.842  16.679   1.611 -0.0216  0.2471  0.1148
    1W        W48951  19.359   8.470   0.886 -0.3507  0.1824  0.2553
    1W        W48952  10.129  15.349   1.588  0.0934  0.0031 -0.0985
    1W        W48953  14.502  22.408   1.332 -0.2421  0.1938 -0.1481
    1W        W48954  25.899   7.249   7.472  0.1335 -0.0333  0.3436
    1W        W48955  13.111  16.845   0.694 -0.2089 -0.0955  0.2386
    1W        W48956   3.564  12.202   1.110 -0.1630  0.0747 -0.2099
    1W        W48957  13.699  16.053   1.474 -0.1370  0.0997 -0.3009
    1W        W48958  11.529   6.653   3.403 -0.0031  0.4289  0.0118
    1W        W48959  29.201   6.213   6.586 -0.2890 -0.0541 -0.2796
    1W        W48960  13.732  15.342   1.058 -0.2446  0.0370 -0.0628
    1W        W48961  20.598  26.295   2.344  0.1136  0.0372 -0.0533
    1W        W48962  12.326  24.060   0.747 -0.1323 -0.1727 -0.4236
    1W        W48963   6.247  11.855   0.492 -0.0268 -0.0575  0.1929
    1W        W48964  23.683  19.332   9.042  0.0791  0.1587 -0.0480
    1W        W48965  19.829  18.938   8.780 -0.2973 -0.1327 -0.2052
    1W        W48966   6.819   6.126   7.343  0.2701  0.2301 -0.1374
    1W        W48967  22.104  10.741   7.728  0.0630  0.1824 -0.6109
    1W        W48968   6.432  19.288   7.565  0.1766  0.2761 -0.0187
    1W        W48969  16.205   3.543   1.288 -0.1335  0.0076  0.0659
    1W        W48970   7.815  27.990   0.859  0.0808 -0.0105  0.0791
    1W        W48971  20.609  23.985   2.584  0.1159 -0.0353 -0.1124
    1W        W48972   4.431  19.836   8.566  0.1144  0.1769  0.1443
    1W        W48973   0.567  26.321   0.322  0.1879  0.0655 -0.0051
    1W        W48974  12.166  27.952   1.170 -0.4503 -0.0655  0.1481
    1W        W48975  13.013  27.827   8.792 -0.3800 -0.1445 -0.0229
    1W        W48976  24.405  19.745   8.527 -0.0317 -0.1791 -0.0151
    1W        W48977  26.714   3.956   7.575 -0.3969 -0.2042 -0.2131
    1W        W48978  15.687  22.123   8.480 -0.0935  0.1117  0.0339
    1W        W48979  10.890   2.037   8.787 -0.1757  0.1081  0.5451
    1W        W48980  25.549   1.893   0.424  0.0318 -0.1043 -0.1834
    1W        W48981  18.800  27.716   2.766  0.1780  0.1587 -0.1420
    1W        W48982  14.926  15.056   2.537 -0.1871  0.1275  0.0804
    1W        W48983   3.538  25.497   3.086  0.0489  0.0113 -0.6017
    1W        W48984  27.207  23.988   3.199  0.3556 -0.2155 -0.4679
    1W        W48985  25.980  12.536   5.987  0.1454 -0.0114  0.1232
    1W        W48986   3.721  10.765   0.141 -0.0839 -0.0798 -0.1904
    1W        W48987  23.727  23.340   1.711 -0.0829  0.0312 -0.2034
    1W        W48988  15.579  10.497   0.123 -0.0598  0.0287  0.0950
    1W        W48989   0.918   0.734   3.155  0.0593  0.2138  0.1796
    1W        W48990   9.899  24.227   6.616 -0.1548  0.0382 -0.0998
    1W        W48991  26.977  25.788   0.855 -0.0641  0.2082  0.0872
    1W        W48992  18.717   1.265   2.678  0.0452  0.0884  0.1330
    1W        W48993   3.485  12.754   6.407  0.4343  0.0903  0.1058
    1W        W48994   1.719  14.609   6.996  0.1210 -0.1329 -0.0736
    1W        W48995  11.971   0.878   8.361 -0.3100  0.0114  0.2366
    1W        W48996  11.903  21.660   0.772  0.2825  0.3377  0.1515
    1W        W48997  27.359  13.013   7.686  0.0669 -0.1590  0.1817
    1W        W48998   0.217   7.479   8.223  0.2665 -0.1387  0.2400
    1W        W48999  24.661   3.086   0.945  0.0320 -0.2296  0.2582
    1W        W49000  18.974  12.130   2.794 -0.1949  0.0578  0.0849
    1W        W49001   3.759   5.035   6.242 -0.0721  0.2551 -0.1194
    1W        W49002  24.853  26.305   8.698 -0.0194 -0.0182 -0.2252
    1W        W49003   8.472  22.342   7.809 -0.1630  0.4422  0.3800
    1W        W49004   3.682   2.193   2.848 -0.2108  0.6755  0.0113
    1W        W49005  21.563   8.102   3.052  0.1186 -0.1839 -0.0741
    1W        W49006   8.646   8.926   7.367  0.3022  0.2025 -0.0454
    1W        W49007  25.024   1.544   1.112  0.0128 -0.0320 -0.3846
    1W        W49008   6.695  17.958   0.450 -0.0992  0.2497 -0.1389
    1W        W49009  20.248   9.406   0.826 -0.3853 -0.0229 -0.1554
    1W        W49010   0.542  17.079   9.450  0.0702  0.0385 -0.3573
    1W        W49011   4.911  28.362   9.498  0.0396  0.1587 -0.3920
    1W        W49012  20.312  12.631   7.938  0.2367  0.1759 -0.1494
    1W        W49013  20.183   3.853   1.116 -0.1490  0.1462  0.0655
    1W        W49014  12.824  19.217   2.110  0.3430 -0.1006 -0.2606
    1W        W49015  21.344   0.419   3.268 -0.3304 -0.0988  0.0056
    1W        W49016  13.032  20.131   0.292 -0.0100  0.2411  0.0299
    1W        W49017   2.233  20.415   8.079 -0.0549 -0.2019 -0.5142
    1W        W49018  15.023   5.392   8.015 -0.1593 -0.2294 -0.1518
    1W        W49019  27.017  14.245   9.680  0.1402  0.0941  0.0431
    1W        W49020  26.925   6.151   8.706  0.1128  0.0172 -0.3634
    1W        W49021   2.852  19.198   1.455 -0.1568 -0.1080  0.0840
    1W        W49022  22.658  12.858   9.281  0.1898  0.2567 -0.0388
    1W        W49023   3.662  12.980   6.819  0.1940  0.2152 -0.4314
    1W        W49024  22.529  10.527   1.821  0.2258 -0.0279 -0.2913
    1W        W49025  13.909  25.083   8.720  0.0872  0.0195  0.0540
    1W        W49026  17.222   9.060   2.332 -0.2741 -0.0496  0.0411
    1W        W49027   8.324  15.581   1.366  0.0423  0.0711  0.1710
    1W        W49028   2.350  16.511   7.390  0.0264  0.1399 -0.0335
    1W        W49029  19.056  16.663   2.280 -0.2124  0.1803 -0.2423
    1W        W49030  21.426  23.702   8.923  0.0421  0.0911 -0.1594
    1W        W49031  27.507  26.883   6.669  0.2095 -0.4161  0.4399
    1W        W49032   2.556  20.871   6.790 -0.0007 -0.2784  0.0683
    1W        W49033  15.449  14.590   1.093  0.0578 -0.1452  0.2456
    1W        W49034  20.222  18.218   0.787  0.0416 -0.1076 -0.3138
    1W        W49035  11.744  10.402   8.597  0.1004  0.1310  0.2189
    1W        W49036   1.531  24.368   8.663 -0.0243  0.1040  0.1612
    1W        W49037   9.436  10.997   0.809 -0.1652  0.1081  0.1005
    1W        W49038   1.778  16.166   7.523 -0.0595 -0.2193  0.1346
    1W        W49039  10.641  27.888   8.190  0.0801  0.2727 -0.0511
    1W        W49040  18.083  12.122   1.000 -0.2272  0.1767 -0.0898
    1W        W49041  12.096   7.421   8.057 -0.0183 -0.1554 -0.0283
    1W        W49042   4.508  22.285   9.111 -0.1396 -0.0130 -0.0400
    1W        W49043  28.157   9.925   9.497  0.0193  0.0409  0.2839
    1W        W49044  27.592   8.933   8.094  0.1451  0.1120 -0.4311
    1W        W49045  25.202  12.734   9.325  0.2580  0.2097  0.0174
    1W        W49046   5.930   9.417   8.905 -0.3905  0.0051  0.1663
    1W        W49047  13.522   7.530   0.512 -0.1413  0.1717 -0.0500
    1W        W49048  18.582  15.448   1.165  0.2506  0.0626 -0.1802
    1W        W49049   1.285  27.148   8.167 -0.0257  0.1010 -0.0585
    1W        W49050  26.508  19.011   1.481  0.1887 -0.1125 -0.1680
    1W        W49051  11.376  16.056   0.919  0.1062  0.0078  0.1341
    1W        W49052  21.566  25.813   3.144 -0.0176  0.0596 -0.1808
    1W        W49053  25.732   9.230   2.129  0.2921 -0.0412 -0.2201
    1W        W49054  25.170  17.021   0.786  0.1445  0.0559 -0.0232
    1W        W49055   8.410  19.870   1.004 -0.3499 -0.1637 -0.0717
    1W        W49056   1.619  25.695   1.914  0.2908 -0.0711 -0.0908
    1W        W49057  23.905  19.254   7.782 -0.2712  0.3633  0.2023
    1W        W49058   3.541  19.476   8.430 -0.0932  0.1810 -0.0346
    1W        W49059  26.966   7.343   0.131  0.1225 -0.0376 -0.1092
    1W        W49060  25.541  23.232   6.255  0.0530  0.1948 -0.0357
    1W        W49061  29.331  21.795   6.651  0.1106  0.1070 -0.1702
    1W        W49062   9.106  10.064   0.333 -0.3486  0.0210 -0.1346
    1W        W49063  27.187   3.299   1.825  0.2747 -0.0190 -0.0691
    1W        W49064  10.230  26.743   1.116  0.0361  0.0103  0.0303
    1W        W49065  18.322  24.419   0.914 -0.1194 -0.1479  0.3858
    1W        W49066  12.042  28.836   9.402  0.0800 -0.2448  0.2408
    1W        W49067  16.336  22.951   8.428 -0.0862  0.0443  0.2324
    1W        W49068  28.766  23.200   0.660  0.1302 -0.2558  0.1255
    1W        W49069   2.613   6.133   9.338  0.0271  0.2719  0.2131
    1W        W49070   5.571   5.041   8.392 -0.2907 -0.0801 -0.1870
    1W        W49071   8.803   0.730   8.992 -0.0681 -0.0700  0.0681
    1W        W49072  22.832  28.929   0.811 -0.0720  0.1829  0.0698
    1W        W49073  16.983   9.873   8.587 -0.1819  0.1593  0.0199
    1W        W49074   7.964  10.575   9.534 -0.1690 -0.2112  0.2148
    1W        W49075  19.640   0.247   0.742  0.2579 -0.0430 -0.0109
    1W        W49076  11.198   8.966   8.441  0.3566  0.1438  0.0431
    1W        W49077  22.265   8.138   7.098 -0.1656 -0.1394 -0.0581
    1W        W49078  24.295   4.387   2.190  0.1465  0.2017  0.1006
    1W        W49079   4.190  27.192   1.599 -0.1509  0.0116 -0.0485
    1W        W49080  28.765  19.766   2.974  0.0598  0.1512 -0.1019
    1W        W49081  19.746   0.778   3.206  0.0023 -0.0785 -0.1087
    1W        W49082   3.746  23.394   9.691 -0.4822  0.1732  0.1797
    1W        W49083  24.177  27.002   8.089 -0.3744  0.3250  0.0832
    1W        W49084  27.992  17.273   0.645 -0.0383  0.1853  0.0313
    1W        W49085  24.379  25.649   2.842 -0.1470 -0.4299  0.1366
    1W        W49086   7.534   0.210   1.154  0.2108 -0.1804  0.1868
    1W        W49087  25.065   8.717   9.369 -0.0488  0.2178 -0.4370
    1W        W49088   5.535   8.301   2.378 -0.0097 -0.0128 -0.1692
    1W        W49089  25.895  17.479   0.854  0.0018 -0.1459  0.0587
    1W        W49090   2.470   5.603   9.344 -0.3370 -0.1488  0.1410
    1W        W49091  28.181   0.017   0.270 -0.1725  0.3687  0.1279
    1W        W49092   9.047  24.831   8.264 -0.2498  0.5961 -0.1468
    1W        W49093  29.339   0.753   9.114 -0.2699 -0.0718 -0.2308
    1W        W49094  26.848  17.432   8.103  0.2316 -0.2319  0.0520
    1W        W49095  17.769  18.995   1.869 -0.1036  0.0937 -0.0121
    1W        W49096   5.903  12.540   6.960  0.0289  0.0628  0.0159
    1W        W49097   1.962  28.486   2.421  0.3716 -0.0152 -0.2501
    1W        W49098   4.137  15.537   1.595  0.0390  0.0954  0.1922
    1W        W49099  10.929  23.996   6.656 -0.0437  0.0274 -0.2329
    1W        W49100   6.888  28.496   7.064  0.0994 -0.0346  0.3054
    1W        W49101  25.911  23.789   9.311  0.1915 -0.0909 -0.1106
    1W        W49102   5.338   3.076   2.511 -0.0387  0.1574 -0.0857
    1W        W49103   2.652  11.622   6.815  0.1694 -0.4074 -0.1040
    1W        W49104  20.036  13.210   8.978 -0.2651  0.0411 -0.0699
    1W        W49105  24.492   8.597   7.862 -0.2696  0.2124  0.0124
    1W        W49106  21.142  15.987   1.586 -0.1184  0.2135 -0.0649
    1W        W49107  26.143  21.958   3.336 -0.0407 -0.3459  0.2487
    1W        W49108  11.695  19.936   7.618 -0.2188 -0.1994 -0.3227
    1W        W49109  18.948   4.198   1.273  0.3704  0.2156 -0.1186
    1W        W49110  27.302  14.916   6.742 -0.0912  0.0894  0.0451
    1W        W49111  18.449   1.597   7.981 -0.3617  0.1605  0.0577
    1W        W49112  18.527  19.208   9.039  0.1261  0.3396  0.0887
    1W        W49113  18.615  26.015   1.665  0.0758  0.2642  0.0052
    1W        W49114   4.241   9.212   8.909  0.3146  0.0616  0.2949
    1W        W49115   6.311   9.970   8.457 -0.0405 -0.1448 -0.1718
    1W        W49116  19.473   0.713   9.354 -0.1993  0.2536  0.1954
    1W        W49117  23.613  14.528   7.028 -0.0681  0.2376  0.1536
    1W        W49118  29.051   9.965   3.295  0.3136  0.1617 -0.3516
    1W        W49119   6.333  25.478   0.030 -0.0401 -0.0316  0.0656
    1W        W49120  17.743   2.679   7.169  0.1075  0.0553  0.2374
    1W        W49121  16.943  14.290   7.296  0.1251  0.1167 -0.1192
    1W        W49122  16.989   6.944   2.442  0.4968 -0.0980  0.0080
    1W        W49123  13.364   6.364   3.153  0.0907  0.0745 -0.1239
    1W        W49124   6.651   3.996   1.781  0.0911  0.3644 -0.0732
    1W        W49125  19.270  26.841   2.627  0.3085 -0.2368  0.0284
    1W        W49126   6.190   0.635   2.453  0.5866  0.2569  0.0349
    1W        W49127   8.961  19.293   0.465 -0.0280 -0.3581 -0.2132
    1W        W49128  25.304  15.722   9.636  0.0549 -0.3130 -0.0540
    1W        W49129  23.481  25.314   0.480 -0.1280 -0.0072  0.4413
    1W        W49130   7.207   7.596   2.849  0.1607 -0.0669 -0.2685
    1W        W49131  10.792   4.761   9.003  0.1198 -0.1416 -0.2963
    1W        W49132  15.920  22.090   7.598  0.2019 -0.0401 -0.0375
    1W        W49133  29.281  24.403   8.186 -0.2737 -0.0437 -0.0910
    1W        W49134   5.687   8.802   6.104 -0.0549 -0.3608  0.1961
    1W        W49135  25.683  16.081   6.578  0.1655 -0.0674  0.1426
    1W        W49136   3.826   6.693   8.522 -0.3822 -0.0228  0.0594
    1W        W49137   4.987  13.743   5.888  0.2629  0.1620  0.0951
    1W        W49138   3.966  26.659   8.464  0.1943  0.0002 -0.1393
    1W        W49139  10.214  10.813   1.129 -0.2895  0.2797 -0.0487
    1W        W49140   4.256  22.128   1.034 -0.0443  0.2118 -0.2642
    1W        W49141   3.732  14.924   2.642  0.1059  0.2189  0.0438
    1W        W49142  24.038  29.352   0.498  0.1034  0.0075  0.1041
    1W        W49143  19.656   2.009   7.418 -0.0176  0.2985  0.1308
    1W        W49144   7.313  24.720   1.429  0.0871  0.2406 -0.0771
    1W        W49145  13.510   7.041   0.809  0.0140 -0.3242  0.0026
    1W        W49146  24.876  14.759   5.608 -0.1608  0.1510 -0.1293
    1W        W49147  11.192   1.947   0.500  0.0090  0.2707 -0.0593
    1W        W49148  14.299   0.136   0.231 -0.2354 -0.2625 -0.0799
    1W        W49149   8.924  23.488   8.701  0.2513 -0.0045  0.1767
    1W        W49150  25.629   2.751   6.711  0.1590 -0.2921 -0.0329
    1W        W49151  18.298   6.500   2.838  0.0090  0.0596 -0.0908
    1W        W49152   3.914  22.328   7.367  0.2025 -0.1768 -0.2371
    1W        W49153   9.961  26.522   7.782  0.2057  0.0537 -0.0123
    1W        W49154  20.380  20.862   2.200  0.2149 -0.2218 -0.1288
    1W        W49155  18.031  15.076   8.428  0.0305  0.1810 -0.1268
    1W        W49156  26.064  14.893   1.880 -0.0579  0.3062  0.0562
    1W        W49157  25.843  23.510   1.509 -0.2259 -0.2615  0.2861
    1W        W49158  18.520  18.094   3.047  0.1939  0.1806 -0.1584
    1W        W49159  28.813  14.038   1.849 -0.1842 -0.0851 -0.1231
    1W        W49160  17.893  10.834   1.801  0.0632 -0.0596 -0.1419
    1W        W49161  27.879  23.846   7.108 -0.1403 -0.1155  0.0038
    1W        W49162  20.808  14.100   7.700  0.3074 -0.2508 -0.4883
    1W        W49163  17.344  24.862   0.578 -0.2020  0.0397 -0.0733
    1W        W49164   1.564   2.696   2.619 -0.2348  0.0741 -0.2825
    1W        W49165  26.488  28.256   8.628  0.0266  0.0741  0.2204
    1W        W49166  14.600  17.657   8.512 -0.4257  0.0449  0.0151
    1W        W49167  27.554  20.863   9.047  0.1437  0.0902 -0.0420
    1W        W49168   7.770  26.903   1.248  0.0611 -0.1990  0.0290
    1W        W49169  18.114  11.384   1.759  0.2005  0.0610  0.1999
    1W        W49170  22.497   3.942   7.082 -0.1579  0.1377 -0.1425
    1W        W49171  23.836  17.420   7.738 -0.0311 -0.0792  0.0380
    1W        W49172  26.613  12.439   0.332 -0.1561 -0.1384 -0.1924
    1W        W49173  24.146  15.255   9.405  0.0470  0.4805 -0.0324
    1W        W49174   8.191  28.122   8.732 -0.0536  0.3096 -0.1266
    1W        W49175  17.717  12.150   1.836  0.0934 -0.2316  0.2616
    1W        W49176   5.899  27.536   8.722 -0.0389  0.1923  0.1657
    1W        W49177  15.276   7.968   8.647  0.0936  0.1163 -0.0914
    1W        W49178  19.508  24.953   9.671 -0.0377  0.0914  0.3279
    1W        W49179  15.688   2.431   3.001  0.1647 -0.3067 -0.0173
    1W        W49180  15.850   8.589   1.204 -0.0298 -0.1007  0.3249
    1W        W49181   5.472  12.414   0.145  0.3921 -0.1358 -0.2333
    1W        W49182  27.110  26.831   7.509  0.3270  0.0544 -0.1253
    1W        W49183   6.367  15.236   7.028 -0.1598  0.0736 -0.4038
    1W        W49184  15.293   2.525   2.622  0.1011  0.0233  0.1724
    1W        W49185  10.845   1.576   0.436 -0.0343 -0.0302 -0.2122
    1W        W49186  10.843   3.223   0.669  0.1109 -0.1382  0.2475
    1W        W49187  14.923  20.610   9.108  0.1280 -0.1805 -0.0477
    1W        W49188   4.691   8.236   9.174  0.1353 -0.0591  0.0306
    1W        W49189  18.021  23.993   7.817  0.1215 -0.0949 -0.0517
    1W        W49190   2.050  22.868   8.070 -0.2432  0.0251  0.5029
    1W        W49191  28.048  14.556   2.212 -0.0623 -0.2893  0.2627
    1W        W49192  12.860  16.277   1.422 -0.3024 -0.0027 -0.1023
    1W        W49193  16.417   2.185   8.344  0.0547 -0.3156 -0.0362
    1W        W49194   8.527   3.664   7.317 -0.0757 -0.1809  0.0176
    1W        W49195   9.634  28.551   9.201 -0.1543  0.1563 -0.1937
    1W        W49196   4.495  28.380   0.092 -0.2023 -0.4841 -0.0306
    1W        W49197  26.038  14.122   9.058  0.2626  0.4556 -0.1407
    1W        W49198  27.876   9.730   7.865 -0.1615  0.2319 -0.2594
    1W        W49199   7.395  11.357   7.943  0.2029  0.1732 -0.1025
    1W        W49200  26.630   5.387   5.293  0.1576  0.4627 -0.0951
    1W        W49201  28.220  15.009   0.310 -0.0438  0.1026 -0.2219
    1W        W49202  26.433   2.365   9.380 -0.2076  0.0444 -0.2860
    1W        W49203  12.098   1.804   0.081 -0.2225  0.0009  0.1584
    1W        W49204  25.258   1.518   0.173 -0.1791  0.0521 -0.0600
    1W        W49205  23.989  12.864   1.709  0.1939  0.2549  0.2975
    1W        W49206  11.315  16.571   0.537  0.2855 -0.2202  0.0695
    1W        W49207  22.179  11.799   1.805  0.0713  0.0865  0.2664
    1W        W49208   1.061   4.144   7.677  0.0739  0.3129  0.1141
    1W        W49209   7.394  12.961   2.403  0.1737 -0.0654  0.2580
    1W        W49210   6.857  23.604   8.690 -0.0003 -0.1110  0.0119
    1W        W49211   0.481  22.590   8.612 -0.1038 -0.0245  0.0045
    1W        W49212  15.241  22.186   6.943 -0.0158 -0.3720  0.1758
    1W        W49213  10.618  20.873   7.955  0.1827  0.0358 -0.1084
    1W        W49214   6.283  22.573   0.519  0.2254 -0.0217 -0.3836
    1W        W49215   0.318   1.203   0.104  0.0836  0.0623 -0.1054
    1W        W49216  24.113  14.701   0.684 -0.1962  0.2076  0.0244
    1W        W49217   2.362  18.825   8.839  0.1759 -0.1319  0.0296
    1W        W49218   7.179   8.131   8.231 -0.1278  0.1028  0.1655
    1W        W49219   9.886   4.312   0.174 -0.0232  0.1771 -0.3770
    1W        W49220  13.367  23.531   1.328  0.3334 -0.2079  0.1832
    1W        W49221  21.036  15.633   1.128  0.1742 -0.1450 -0.1512
    1W        W49222  11.584   5.805   8.162  0.4617 -0.0395 -0.2400
    1W        W49223   9.762  16.936   9.077  0.0345 -0.0176 -0.2152
    1W        W49224  12.493  24.607   3.353  0.1996  0.1048 -0.0475
    1W        W49225  17.432  11.550   9.585  0.0415 -0.1435 -0.1699
    1W        W49226  18.322   1.415   8.523  0.3396  0.1421 -0.2608
    1W        W49227  10.751  10.985   8.370  0.0392  0.1718  0.1951
    1W        W49228  27.298  13.761   1.498 -0.2876 -0.1860 -0.0759
    1W        W49229   9.674   9.423   3.276 -0.0700 -0.0949 -0.1596
    1W        W49230  28.816  24.640   7.889  0.0304 -0.0060  0.0133
    1W        W49231  23.523  28.647   1.923 -0.0550  0.1143 -0.3385
    1W        W49232  19.120   1.444   0.255 -0.2034 -0.2102 -0.0450
    1W        W49233  26.700  26.279   0.175  0.4469 -0.0849  0.5647
    1W        W49234  18.773  21.367   9.331 -0.2970  0.2019 -0.2867
    1W        W49235   0.649  14.193   9.443 -0.1273  0.0030 -0.3989
    1W        W49236  26.120   7.994   9.245 -0.3506 -0.1443 -0.3574
    1W        W49237  26.765  28.288   9.549 -0.3256  0.0783 -0.0269
    1W        W49238   8.929   5.221   2.863 -0.4967 -0.2720 -0.2009
    1W        W49239   5.419   6.226   1.614  0.2509  0.0358 -0.2235
    1W        W49240   0.559  19.359   9.240  0.0940 -0.0345  0.1163
    1W        W49241   9.990  10.577   8.037 -0.2096 -0.0062  0.2815
    1W        W49242   4.742  22.496   0.943  0.3616 -0.0008 -0.2009
    1W        W49243  18.468  26.764   3.269  0.0030  0.0974  0.0363
    1W        W49244  15.565  28.864   0.952 -0.0143  0.1186  0.1644
    1W        W49245   8.204  24.404   1.259  0.1074  0.0271 -0.0833
    1W        W49246   1.899  28.520   0.401 -0.3608  0.0022  0.0766
    1W        W49247  12.661   3.417   7.255 -0.1874  0.2689 -0.1379
    1W        W49248  12.310   6.225   0.676  0.2490 -0.3625  0.1015
    1W        W49249  15.941   3.114   2.653  0.1151  0.0732 -0.1063
    1W        W49250  25.219  23.632   7.180  0.0629 -0.3244  0.2697
    1W        W49251  18.417   0.782   7.393  0.4421  0.2134 -0.4279
    1W        W49252   6.946  29.319   9.672 -0.0264 -0.0205 -0.3096
    1W        W49253   2.941   3.146   6.990 -0.1067 -0.0303  0.0451
    1W        W49254  26.712  20.895   8.894 -0.0688  0.3547  0.2008
    1W        W49255  12.681   4.888   8.571 -0.0513 -0.4510 -0.1136
    1W        W49256  17.777  23.562   2.665 -0.1638 -0.1752 -0.1433
    1W        W49257  26.136  22.282   8.126 -0.2939  0.0011  0.1830
    1W        W49258   9.552  24.058   8.102 -0.1385 -0.2788 -0.2397
    1W        W49259  19.808  21.574   8.082 -0.2353  0.2647  0.1151
    1W        W49260  25.813  11.685   0.501 -0.4405  0.3478 -0.1653
    1W        W49261   6.799   3.702   8.810 -0.1807 -0.2111 -0.3307
    1W        W49262   2.021  28.954   0.629 -0.1719  0.1469  0.1657
    1W        W49263  19.414   3.098   0.561  0.1770 -0.1261 -0.1145
    1W        W49264  20.248  19.060   1.081 -0.0218  0.0464  0.0346
    1W        W49265  13.594  28.166   3.558 -0.1255  0.0940  0.0582
    1W        W49266  28.916  25.954   7.591  0.0634  0.2160  0.1206
    1W        W49267   3.684   8.237   0.600  0.0098 -0.3351 -0.1553
    1W        W49268   7.139  21.398   8.323 -0.0038 -0.1422  0.0292
    1W        W49269  11.611  25.451   2.509  0.0381 -0.0202 -0.3087
    1W        W49270   5.872  21.152   5.570  0.0731  0.0650 -0.0665
    1W        W49271   6.452   7.886   0.215  0.0470  0.0651 -0.3652
    1W        W49272  10.846  13.881   2.216 -0.1344  0.0852  0.0043
    1W        W49273   1.828   5.564   2.071  0.0277  0.2668 -0.2266
    1W        W49274  17.307   4.499   7.509  0.1045 -0.2679  0.1024
    1W        W49275   3.307   3.130   0.841  0.1502 -0.0067 -0.0105
    1W        W49276  16.919   3.895   0.408  0.2770 -0.0669 -0.1211
    1W        W49277   7.492  12.396   9.670 -0.0928 -0.1503 -0.0821
    1W        W49278   1.648   5.674   8.667  0.3638  0.0967  0.0675
    1W        W49279  16.087   0.480   2.608 -0.2983  0.1128  0.0132
    1W        W49280   4.094  17.282   0.153 -0.0193 -0.3397 -0.2215
    1W        W49281   7.301  29.166   7.747 -0.0528  0.0931 -0.3326
    1W        W49282  27.658  12.230   9.239 -0.0494  0.2678  0.3469
    1W        W49283   6.492  27.532   1.278  0.1123  0.0382  0.0767
    1W        W49284  20.961  28.893   1.756  0.1887 -0.0541  0.0130
    1W        W49285  19.879  13.762   0.388  0.0779 -0.0201 -0.4222
    1W        W49286  11.655  28.249   0.377 -0.1494  0.3565  0.0475
    1W        W49287  14.008  27.510   1.951 -0.2601  0.2879 -0.0222
    1W        W49288  27.601  22.360   3.199 -0.1690 -0.1358  0.0740
    1W        W49289   3.121  23.396   7.210  0.0746 -0.0627 -0.2766
    1W        W49290  17.609   1.488   8.120  0.1366  0.0878  0.0604
    1W        W49291   6.181  17.519   1.152 -0.2695  0.1578  0.0550
    1W        W49292   6.013  22.698   8.726  0.2756  0.0854  0.0603
    1W        W49293   7.015  19.812   9.259 -0.0749 -0.3535 -0.0638
    1W        W49294  19.507  16.587   9.110 -0.0371  0.1320  0.3136
    1W        W49295  11.879  20.259   6.853 -0.2121  0.0745  0.0098
    1W        W49296   5.526  13.702   7.324  0.3058 -0.0372  0.0456
    1W        W49297   5.697  14.010   2.767  0.0255  0.1104 -0.1761
    1W        W49298   0.656   0.724   1.170  0.4231  0.1468  0.0903
    1W        W49299  15.971  20.588   0.374 -0.1019 -0.1049 -0.2085
    1W        W49300  23.155  25.760   7.138 -0.2458 -0.0624  0.1420
    1W        W49301   3.712  21.903   1.606 -0.4248 -0.1442 -0.2489
    1W        W49302  25.461  22.746   2.464 -0.0531  0.0883 -0.2394
    1W        W49303   2.353  22.229   7.169  0.0049  0.2231  0.0421
    1W        W49304   4.038  19.209   9.415 -0.0645 -0.0878 -0.2267
    1W        W49305   8.398  29.141   2.195  0.0903 -0.1132  0.1373
    1W        W49306  26.734   2.856   7.603  0.1535 -0.3133  0.1588
    1W        W49307   8.985  12.589   7.565 -0.0752 -0.2157 -0.0485
    1W        W49308  18.808  11.475   0.539  0.0265 -0.0681  0.0030
    1W        W49309  23.004  22.715   7.622 -0.0321  0.1163  0.1210
    1W        W49310   0.381  16.172   8.904  0.1376 -0.2962  0.1034
    1W        W49311  27.567   5.115   1.132 -0.0674  0.2230 -0.0228
    1W        W49312  24.237   2.418   8.422 -0.0850 -0.2387  0.0251
    1W        W49313   0.513  27.723   8.512 -0.0186  0.0097  0.2195
    1W        W49314  18.154  14.725   8.876 -0.2394  0.0322 -0.0652
    1W        W49315  23.758   1.654   2.102  0.0157 -0.0296 -0.1910
    1W        W49316   0.804   6.186   6.647 -0.2334  0.1140 -0.2102
    1W        W49317  26.250  25.479   9.399  0.2458  0.0312 -0.1286
    1W        W49318   7.968   2.780   7.969 -0.4911 -0.0284  0.3071
    1W        W49319   7.924  16.511   0.134  0.0429  0.2590 -0.2257
    1W        W49320  13.260  16.136   1.703 -0.0418 -0.0075 -0.0188
    1W        W49321  18.743  25.611   9.538 -0.1913 -0.0770  0.0069
    1W        W49322  28.075   0.235   0.866  0.1998 -0.5004  0.0241
    1W        W49323   3.903  10.871   7.342  0.0017  0.0593  0.0259
    1W        W49324   7.082   7.257   0.632  0.3163  0.1804 -0.4048
    1W        W49325   5.606   7.679   6.956  0.0701 -0.0346  0.1854
    1W        W49326  21.408   6.748   8.603 -0.3461  0.1331 -0.0555
    1W        W49327  12.524  20.873   9.628 -0.1590 -0.0267 -0.0495
    1W        W49328  18.710  23.636   6.826 -0.0187  0.0362  0.1032
    1W        W49329  20.863  17.700   0.557 -0.1432 -0.0144 -0.0811
    1W        W49330  14.800  27.415   3.470  0.0126 -0.3148 -0.3820
    1W        W49331   4.297  20.415   8.725  0.1379  0.0832  0.2310
    1W        W49332  15.995   4.224   4.034 -0.1082  0.0863  0.1470
    1W        W49333  25.457  27.563   8.651  0.3309 -0.1358  0.4903
    1W        W49334   5.212  24.187   2.339 -0.3411 -0.2504  0.2237
    1W        W49335  12.545   8.977   1.595 -0.0272 -0.1122 -0.0061
    1W        W49336  13.032  18.941   7.424  0.2359 -0.1449  0.0968
    1W        W49337  16.206  24.653   8.694 -0.0510  0.0085 -0.3433
    1W        W49338   0.569   0.749   8.804  0.0153  0.1984 -0.0541
    1W        W49339  27.997   7.225   0.975 -0.0460  0.1614 -0.3498
    1W        W49340  10.800  12.488   1.362  0.2472  0.2681  0.0478
    1W        W49341  19.884   0.955   0.317 -0.0464 -0.1330 -0.1743
    1W        W49342  11.988   6.167   9.566  0.0331 -0.0024  0.3627
    1W        W49343  13.835  22.834   1.802 -0.2925  0.1524  0.2411
    1W        W49344  23.534   6.505   0.066 -0.0856  0.0630  0.2920
    1W        W49345   2.735   7.045   9.621 -0.1357 -0.2334 -0.0047
    1W        W49346  14.533  21.357   0.988 -0.0671 -0.0832 -0.0023
    1W        W49347  25.643  25.925   1.266 -0.1186 -0.2953 -0.1265
    1W        W49348  15.277   2.618   7.513 -0.3184  0.0390  0.1788
    1W        W49349  17.255  20.739   7.619 -0.0341  0.1782 -0.0328
    1W        W49350   7.009   0.293   2.410 -0.0657 -0.0901  0.3552
    1W        W49351  26.306  27.051   1.523 -0.0296  0.3795  0.2441
    1W        W49352  14.206  28.980   0.380 -0.0029  0.1417  0.0588
    1W        W49353   1.238  11.049   2.278 -0.0035 -0.1101  0.0217
    1W        W49354  20.972   4.682   1.691  0.0027  0.1498 -0.0551
    1W        W49355  14.081  19.209   9.303  0.3619  0.0242  0.0636
    1W        W49356   1.427  13.371   2.662 -0.0212 -0.2343 -0.2625
    1W        W49357   5.442  17.539   5.518 -0.2136 -0.1840 -0.0035
    1W        W49358  22.139  20.390   2.108  0.1853  0.0682 -0.0836
    1W        W49359   0.896  16.326   8.900  0.0257 -0.0651 -0.2737
    1W        W49360  11.773   2.489   8.433 -0.1830  0.2838 -0.1726
    1W        W49361  16.390   2.572   3.197  0.2584  0.0625  0.0795
    1W        W49362  24.723  24.639   0.605 -0.0604 -0.2277 -0.0371
    1W        W49363  15.426  19.797   7.517  0.0573 -0.0422 -0.1251
    1W        W49364   3.704  25.854   8.277  0.3288 -0.3166  0.2976
    1W        W49365   9.269  25.189   2.744 -0.0178  0.2114 -0.0678
    1W        W49366  26.899  23.459   0.083  0.1150 -0.2155 -0.0033
    1W        W49367   7.148   2.874   1.772 -0.0377 -0.1204  0.1045
    1W        W49368  18.615   0.135   1.846  0.0245  0.0005 -0.0995
    1W        W49369   6.885  28.591   8.606  0.2379 -0.2108  0.0439
    1W        W49370  21.337   7.415   8.389 -0.0244  0.5282 -0.1282
    1W        W49371  20.447  27.142   8.602  0.2512  0.3154 -0.2090
    1W        W49372  15.423  12.782   7.767 -0.1385 -0.4222  0.4151
    1W        W49373  28.255   2.764   8.310 -0.2179 -0.1892  0.0164
    1W        W49374  15.044   2.172   7.429  0.2965  0.1807 -0.1383
    1W        W49375  22.556  25.990   2.323  0.1937  0.2560 -0.0239
    1W        W49376   0.470  16.481   8.286  0.1813  0.0093 -0.3121
    1W        W49377   1.390  23.577   1.590 -0.0622  0.0501  0.2583
    1W        W49378  15.042  12.730   9.307 -0.0516 -0.0326  0.0538
    1W        W49379  14.695   6.130   1.856 -0.1428 -0.1868 -0.0149
    1W        W49380  23.233   4.685   8.281  0.1697  0.1200 -0.1813
    1W        W49381  22.274   4.644   2.048  0.0052 -0.1362 -0.1106
    1W        W49382   9.261  11.543   9.032 -0.0574  0.0299  0.2778
    1W        W49383  25.157   9.553   8.527  0.0823  0.0073 -0.3357
    1W        W49384  12.908  13.538   7.457  0.1553  0.0109  0.1620
    1W        W49385  17.031  15.166   8.074 -0.1460 -0.0218  0.1523
    1W        W49386  23.428   5.614   1.200  0.1431  0.3000  0.0500
    1W        W49387  19.219  22.048   9.646 -0.2325 -0.1166 -0.1501
    1W        W49388  12.507  11.663   9.487  0.1296 -0.1787 -0.0685
    1W        W49389   0.236   3.376   7.232  0.2956 -0.0530  0.0355
    1W        W49390  18.704  29.096   8.754  0.4792  0.0513 -0.2094
    1W        W49391  12.354  23.932   1.576 -0.0350 -0.3298 -0.0807
    1W        W49392  18.723  13.289   9.636  0.2198 -0.1073 -0.3455
    1W        W49393  28.961  19.202   0.718  0.0255  0.1439  0.0162
    1W        W49394  13.928  16.039   8.373 -0.1408  0.0733 -0.1864
    1W        W49395  14.522  17.014   1.147  0.0482 -0.0930  0.0104
    1W        W49396  12.717   3.633   7.734 -0.2084  0.0813  0.0708
    1W        W49397   6.503   1.047   2.738 -0.0161  0.3675  0.0951
    1W        W49398   8.222   7.191   7.454  0.1839  0.4645 -0.0177
    1W        W49399  10.627  14.743   0.626  0.0179 -0.2074  0.0972
    1W        W49400  28.128   5.393   2.223  0.0588  0.2364 -0.2834
    1W        W49401   2.715   7.025   8.235 -0.2211 -0.1227  0.0461
    1W        W49402   8.094  24.569   8.355  0.1469  0.3097 -0.1245
    1W        W49403   9.555   6.959   2.055  0.2795  0.0942  0.0810
    1W        W49404  22.250  16.125   9.518 -0.2804  0.0496  0.2603
    1W        W49405  12.890  10.350   2.616  0.1263  0.0947  0.2028
    1W        W49406  12.821  17.343   0.782  0.1258 -0.0730  0.3334
    1W        W49407   1.190   9.968   0.686  0.0504  0.2801 -0.1861
    1W        W49408  23.710  12.493   8.397 -0.2388 -0.0130 -0.2918
    1W        W49409   1.695  11.516   9.016  0.0828 -0.2034 -0.1293
    1W        W49410  17.803  13.960   8.569 -0.0619 -0.0142  0.1473
    1W        W49411   6.683  24.291   7.163  0.0949 -0.0772  0.0927
    1W        W49412  27.828  12.961   5.803 -0.3409  0.0309 -0.0620
    1W        W49413  17.393  14.002   9.002  0.0211  0.2534 -0.0978
    1W        W49414  16.381   7.270   7.520  0.1790  0.0941 -0.0174
    1W        W49415   3.988  15.150   1.113 -0.0584  0.1094  0.2547
    1W        W49416   1.938  27.310   0.375 -0.1611  0.4339 -0.1494
    1W        W49417   3.123  12.878   9.005 -0.0346  0.0173  0.0553
    1W        W49418  12.415  12.827   9.453 -0.0177  0.1253 -0.0182
    1W        W49419  11.965  17.442   1.380 -0.2552  0.0167  0.1121
    1W        W49420  15.258  10.894   2.080 -0.1214  0.0301  0.1177
    1W        W49421   7.915  16.684   9.188  0.0299 -0.1120 -0.1824
    1W        W49422  25.230   5.958   6.536  0.1714 -0.0411  0.1996
    1W        W49423  22.052  20.662   7.410 -0.1192 -0.0952  0.2172
    1W        W49424  24.140   9.065   1.382  0.2963  0.1397 -0.2016
    1W        W49425  15.385   2.584   9.405  0.1417  0.3067  0.1138
    1W        W49426   2.205  18.861   2.164 -0.1159 -0.0358  0.0658
    1W        W49427  18.503   8.540   1.609 -0.0798  0.0355  0.0846
    1W        W49428  13.545  23.007   7.218  0.1016 -0.0940 -0.2932
    1W        W49429  17.995   3.846   8.431  0.2829 -0.0266 -0.0138
    1W        W49430  18.411  23.280   2.647 -0.1330 -0.0535  0.1809
    1W        W49431   0.684  12.609   0.840 -0.0019 -0.1684  0.0023
    1W        W49432  13.087  25.906   8.476 -0.1631  0.1238  0.2919
    1W        W49433  13.471   1.461   0.143  0.1507  0.0968 -0.0802
    1W        W49434  21.928  28.639   8.288 -0.2055 -0.3070  0.2286
    1W        W49435   9.536  22.467   6.660 -0.1028 -0.1038 -0.3778
    1W        W49436   4.981  15.784   7.616 -0.2194  0.1409  0.1569
    1W        W49437  23.684  11.693   2.088 -0.1181 -0.0230  0.0323
    1W        W49438  13.662   9.573   1.684  0.0586  0.0874  0.2138
    1W        W49439  18.933  28.899   9.255  0.1239  0.2065  0.0570
    1W        W49440  18.375  23.112   3.328 -0.1286 -0.0655 -0.1118
    1W        W49441  25.501  24.519   7.753 -0.1988 -0.0055  0.1847
    1W        W49442  25.794   7.984   2.795 -0.1876  0.1091 -0.1115
    1W        W49443  18.874  11.274   0.026 -0.0637  0.3181 -0.2313
    1W        W49444   7.619  26.643   1.651 -0.1657 -0.2332  0.0748
    1W        W49445  21.687  12.948   6.801 -0.1237 -0.0395  0.1709
    1W        W49446   8.589  26.481   0.899  0.0374  0.1592  0.0682
    1W        W49447  10.258  13.511   1.014  0.2491 -0.3242 -0.1744
    1W        W49448  27.157  25.850   1.977 -0.2091 -0.3062  0.1316
    1W        W49449  17.572  23.423   0.587  0.1068 -0.0139 -0.0194
    1W        W49450  26.302  11.195   1.181 -0.2076  0.4109 -0.3030
    1W        W49451  22.637   7.026   2.543 -0.1210  0.1480 -0.0454
    1W        W49452  20.998   6.992   6.682  0.0760  0.3418 -0.2679
    1W        W49453  16.855  24.636   8.395 -0.0229 -0.2344  0.3404
    1W        W49454  23.276  21.882   3.351 -0.0165 -0.0709 -0.0958
    1W        W49455  14.695  11.121   9.038 -0.0272 -0.3577 -0.1037
    1W        W49456  17.677  24.416   2.313  0.0186  0.0721  0.0322
    1W        W49457  29.067  22.083   0.027 -0.0689 -0.0138 -0.0736
    1W        W49458   2.503  10.816   9.331 -0.1464 -0.2986 -0.0643
    1W        W49459  19.782  18.457   0.599 -0.0326  0.0564  0.1680
    1W        W49460  19.843  23.349   0.990  0.0679 -0.0338  0.1805
    1W        W49461   2.898  15.974   8.073 -0.2326 -0.2426  0.1426
    1W        W49462   1.265   2.644   6.727  0.0714 -0.2850  0.2139
    1W        W49463   3.649  16.142   8.193 -0.1699  0.4241  0.0184
    1W        W49464  16.105  22.754   7.383 -0.0025  0.3782 -0.0831
    1W        W49465  13.623  20.831   9.381 -0.1769 -0.0333 -0.0858
    1W        W49466  12.879   0.692   8.044  0.0903  0.2372  0.0268
    1W        W49467   9.962   0.383   0.178 -0.1680  0.0049 -0.3201
    1W        W49468  11.936  28.948   1.871 -0.0407  0.0812 -0.0017
    1W        W49469  21.428  28.356   2.460  0.1678 -0.1966 -0.0192
    1W        W49470   6.467   4.775   2.671  0.0069 -0.1066 -0.1392
    1W        W49471  11.410  24.143   1.587  0.2791  0.0005  0.1999
    1W        W49472   2.282   3.083   7.724 -0.1971 -0.0143  0.1020
    1W        W49473  27.277  26.203   1.619  0.0921  0.0229  0.0506
    1W        W49474  13.697  19.446   9.075 -0.2464 -0.0551  0.0759
    1W        W49475   5.765   9.435   0.909  0.1506 -0.1949  0.0010
    1W        W49476   8.770  18.888   6.675 -0.0586 -0.1008  0.1770
    1W        W49477   4.563  25.682   0.639 -0.0626  0.1070 -0.2424
    1W        W49478   1.737   4.375   0.925  0.2518  0.0770 -0.3114
    1W        W49479  10.518   4.675   3.382  0.1120 -0.0057 -0.0698
    1W        W49480  15.623  23.752   0.748  0.0553 -0.0456 -0.1829
    1W        W49481  26.276  14.042   7.802 -0.3226  0.4111  0.3882
    1W        W49482  10.587   4.846   8.481  0.0150 -0.0391 -0.1135
    1W        W49483  18.819  14.586   0.311  0.0693  0.0571 -0.0253
    1W        W49484   7.807  21.220   0.503 -0.2658 -0.1472  0.3594
    1W        W49485  26.794   2.668   9.205 -0.1897 -0.2614  0.3392
    1W        W49486  26.672  20.580   9.660 -0.1681 -0.0445 -0.4018
    1W        W49487  15.497   7.659   9.071 -0.1118  0.1133  0.1561
    1W        W49488   7.228  25.661   1.197 -0.2099  0.0835 -0.0310
    1W        W49489   3.560  27.980   1.567 -0.2416  0.2776 -0.1814
    1W        W49490  28.305  19.502   2.851  0.2579  0.3153 -0.0369
    1W        W49491  12.560  25.599   2.480 -0.1345  0.0083  0.2419
    1W        W49492  14.785  14.095   8.202  0.1816 -0.0467 -0.0902
    1W        W49493   5.695  24.365   7.269  0.0624  0.1769 -0.1414
    1W        W49494  23.711  11.178   7.318  0.1760  0.0339  0.2061
    1W        W49495   3.373   3.812   8.257 -0.3133  0.0725  0.3972
    1W        W49496   3.221   7.053   7.111 -0.3182  0.1772  0.1897
    1W        W49497   2.995  13.240   5.783 -0.2212  0.0765  0.1437
    1W        W49498   3.299  26.726   6.506 -0.1323 -0.3348 -0.0106
    1W        W49499  20.961  14.934   0.427  0.0358  0.0976 -0.0798
    1W        W49500  10.592  14.476   8.675  0.0819 -0.3387 -0.0565
    1W        W49501  17.746  19.849   1.685  0.0937  0.1937 -0.3138
    1W        W49502  18.156  27.004   7.088  0.0126  0.2464 -0.0153
    1W        W49503  11.693   4.459   9.138  0.4797  0.1687  0.1158
    1W        W49504   0.057  10.969   7.499 -0.0923  0.2271 -0.0943
    1W        W49505  21.356   1.404   8.044 -0.0008  0.1309  0.0870
    1W        W49506  10.524   0.942   1.616 -0.0135 -0.0669 -0.0172
    1W        W49507  11.210  23.568   1.939  0.2769 -0.0743  0.1466
    1W        W49508   4.385   4.356   2.301 -0.2975  0.0570  0.2560
    1W        W49509   4.633   0.628   1.724  0.0368 -0.0419 -0.2311
    1W        W49510  11.236  19.776   1.279  0.0543  0.0235  0.0531
    1W        W49511   8.597  27.399   7.538 -0.1959  0.1825 -0.3455
    1W        W49512   2.143  14.480   6.697  0.0907 -0.1012 -0.1383
    1W        W49513  14.150   6.563   1.888 -0.0821  0.3853  0.0249
    1W        W49514  23.289  20.294   0.607  0.3449 -0.0328 -0.1207
    1W        W49515  12.630  26.237   1.169 -0.0831  0.0080  0.0410
    1W        W49516  25.883   2.984   8.092 -0.4089 -0.1956 -0.0785
    1W        W49517  23.051  29.019   1.974 -0.1104 -0.1050 -0.2701
    1W        W49518   0.052   5.859   9.041 -0.1082  0.1013  0.2292
    1W        W49519  23.681   5.243   0.888 -0.3154  0.0240 -0.3352
    1W        W49520  10.384  26.600   0.148 -0.1149 -0.1287  0.3513
    1W        W49521  17.349   6.774   6.934 -0.1125  0.0299  0.2172
    1W        W49522  26.074  22.357   1.564  0.3731 -0.0794  0.1989
    1W        W49523   7.523  11.434   9.507  0.3805 -0.0508  0.0521
    1W        W49524  16.616  25.886   2.074 -0.0613 -0.1141  0.1652
    1W        W49525  11.084  28.707   0.631  0.0030 -0.0689  0.0877
    1W        W49526  10.908  28.110   8.953  0.0718  0.0814  0.2492
    1W        W49527  15.254   0.544   0.489 -0.0547 -0.2434  0.4509
    1W        W49528  20.293  27.944   9.405  0.0362  0.0876  0.1870
    1W        W49529   0.433  23.472   2.958 -0.2095 -0.1477 -0.0386
    1W        W49530  15.106   8.964   1.105  0.1857  0.0279 -0.0309
    1W        W49531   5.601   6.812   8.183 -0.3678  0.2723 -0.0330
    1W        W49532  27.459  24.259   8.551  0.0149  0.2248 -0.0393
    1W        W49533   7.144  20.349   7.517  0.1758 -0.0443 -0.1131
    1W        W49534  11.643  24.704   0.719  0.5152 -0.1424 -0.1091
    1W        W49535   2.787   9.314   2.010 -0.1079 -0.1847  0.0777
    1W        W49536  27.850  26.634   8.708 -0.5344  0.2164 -0.0119
    1W        W49537  19.228  14.943   0.738  0.3153  0.0361  0.1518
    1W        W49538  16.685   6.715   8.662 -0.0260  0.2962  0.3469
    1W        W49539  27.641  26.284   7.911  0.1133  0.2286  0.0506
    1W        W49540  16.739  19.715   8.761 -0.1283  0.5246 -0.1337
    1W        W49541  22.903   9.600   1.559 -0.0983  0.3511  0.2527
    1W        W49542  11.858   0.893   1.768 -0.1178 -0.0426 -0.3115
    1W        W49543   4.906  12.423   7.814 -0.0471 -0.4432 -0.5081
    1W        W49544  19.646  21.361   9.145  0.0782 -0.3361 -0.2378
    1W        W49545  12.935   2.909   8.035 -0.1654 -0.4913  0.1222
    1W        W49546  13.887  20.753   8.193 -0.0326 -0.1560 -0.0699
    1W        W49547  14.892  25.655   2.182 -0.2335  0.1475 -0.1958
    1W        W49548  22.710   9.967   8.191  0.0540 -0.4113 -0.0991
    1W        W49549  20.317  10.250   0.799  0.0805  0.1126 -0.0054
    1W        W49550   9.801  16.643   2.150 -0.1028 -0.1630 -0.2329
    1W        W49551  11.665  28.188   3.990  0.1240  0.0690 -0.0175
    1W        W49552  22.853  12.864   7.532  0.1677 -0.1459  0.0448
    1W        W49553   0.759  27.248   7.782 -0.1035  0.1185 -0.1166
    1W        W49554  21.777  21.834   7.804  0.2422  0.1055  0.1125
    1W        W49555  13.633   2.146   1.907 -0.0055 -0.2194 -0.0294
    1W        W49556  27.440  26.820   7.958  0.1127  0.1389  0.1024
    1W        W49557   4.471  11.155   2.183  0.1011  0.2791 -0.0390
    1W        W49558  20.345   2.946   6.087  0.4730  0.0624 -0.2790
    1W        W49559  20.273  24.037   8.346  0.0053 -0.0702  0.0314
    1W        W49560  25.779  22.426   0.719 -0.2010 -0.1917  0.0788
    1W        W49561  27.048  16.953   2.005  0.0259 -0.3864  0.4566
    1W        W49562  11.952  13.661   7.480 -0.1069  0.1087 -0.1825
    1W        W49563  17.590   0.875   9.417 -0.1755  0.0852  0.2797
    1W        W49564   2.642  27.978   2.952 -0.2357 -0.2196 -0.1228
    1W        W49565  21.751   6.355   9.260  0.0027 -0.4477 -0.0807
    1W        W49566  18.212  19.613   8.322 -0.0325  0.2130 -0.3028
    1W        W49567  18.096  10.012   8.099  0.2651  0.0921 -0.0502
    1W        W49568  19.741   1.844   8.049  0.2403 -0.1803  0.0449
    1W        W49569   9.927   7.894   0.429 -0.0629  0.1976 -0.2796
    1W        W49570  15.088  20.777   0.486  0.1552  0.1049  0.2332
    1W        W49571  24.818  26.955   7.128  0.0577 -0.0831  0.4215
    1W        W49572  22.619  25.458   6.396 -0.2434  0.1682  0.2749
    1W        W49573   0.927   7.404   7.827  0.1892  0.1471  0.1567
    1W        W49574  10.644   9.019   8.242  0.0712 -0.2187 -0.1112
    1W        W49575  18.423  18.512   8.280  0.1424 -0.0934  0.1990
    1W        W49576  20.387  20.343   8.995 -0.0499 -0.0030  0.4085
    1W        W49577  28.071   1.825   2.759 -0.0962  0.2381  0.0418
    1W        W49578   6.325  25.382   1.695 -0.1641 -0.0489  0.2017
    1W        W49579   8.271   0.051   2.706 -0.4564 -0.3040  0.0051
    1W        W49580  27.385  21.841   0.747 -0.1322 -0.0609 -0.0360
    1W        W49581   2.020  10.230   7.596 -0.2254 -0.0940 -0.2156
    1W        W49582  17.876  25.969   1.465 -0.0095  0.0271 -0.2087
    1W        W49583  10.783  18.795   8.055  0.1282 -0.4077  0.0040
    1W        W49584  13.557   9.086   1.738  0.0918 -0.2510  0.0015
    1W        W49585   6.223   3.091   9.308  0.1827 -0.1931 -0.0813
    1W        W49586  18.970  19.572   9.020 -0.0370 -0.4719  0.2623
    1W        W49587   0.828  22.623   8.988  0.1878  0.1140  0.3782
    1W        W49588  19.219  21.758   2.257  0.1491  0.1372 -0.2102
    1W        W49589  12.885   7.993   1.007  0.1179 -0.0631 -0.0218
    1W        W49590   8.342  18.488   9.680  0.0982  0.1929 -0.0439
    1W        W49591  27.450  16.355   7.616 -0.0382  0.2850  0.2577
    1W        W49592  22.367  18.802   8.454  0.1590  0.1697  0.0133
    1W        W49593  20.155  19.362   8.770 -0.5195 -0.1533 -0.1212
    1W        W49594   1.560  10.210   7.323 -0.1305 -0.1123  0.1107
    1W        W49595  23.073  13.765   7.705  0.1302 -0.0703  0.2922
    1W        W49596  16.812   3.903   2.057  0.0091 -0.0408 -0.0265
    1W        W49597   4.489  11.131   0.053  0.0293  0.3585 -0.0383
    1W        W49598  25.494  17.297   1.051  0.2483 -0.0721  0.0779
    1W        W49599  14.798  21.379   7.467  0.1341 -0.1640 -0.2454
    1W        W49600   3.759   0.702   6.231 -0.0876 -0.2513  0.0580
    1W        W49601   2.895   1.488   7.493  0.4084  0.0951 -0.0841
    1W        W49602   6.089  22.564   1.058  0.2272  0.0322 -0.0768
    1W        W49603  22.742   6.747   8.922 -0.1795  0.1203  0.0466
    1W        W49604   2.281  11.605   8.174 -0.0842  0.0674 -0.0718
    1W        W49605  28.839  26.759   9.123 -0.2877  0.0635 -0.0172
    1W        W49606  10.461   6.383   7.755 -0.0658  0.2207 -0.0623
    1W        W49607  12.281  15.972   8.713  0.1306  0.0973 -0.1317
    1W        W49608  17.795   9.021   9.311 -0.1941  0.2689  0.0548
    1W        W49609  13.823   3.034   8.354 -0.3524 -0.4005 -0.1919
    1W        W49610  23.178  16.216   0.670  0.1431  0.1808 -0.2058
    1W        W49611  29.002  18.339   8.703  0.1878  0.3695  0.1471
    1W        W49612  12.299   3.802   7.362  0.2502  0.0441  0.1268
    1W        W49613  20.606   9.614   0.380  0.1911 -0.3314 -0.0065
    1W        W49614   2.336  27.313   3.339  0.0063  0.3635  0.0894
    1W        W49615  28.495  20.098   9.486  0.0017  0.0881  0.0014
    1W        W49616  24.646  11.556   0.441  0.0128 -0.2680  0.0757
    1W        W49617  19.645  24.033   8.496  0.1141  0.1179  0.2009
    1W        W49618  12.318  10.601   0.708  0.1197 -0.0395 -0.0586
    1W        W49619  13.510   9.322   2.218  0.2721  0.1505  0.2093
    1W        W49620  18.267   3.152   1.259 -0.3363  0.1766  0.2427
    1W        W49621   8.338   3.284   0.121  0.1799 -0.0075  0.1631
    1W        W49622  19.168   2.662   7.776 -0.0391 -0.0557 -0.0769
    1W        W49623   6.025   5.908   2.388 -0.0034 -0.1609 -0.1108
    1W        W49624  11.610  25.375   0.891  0.0878  0.0029 -0.0171
    1W        W49625   1.520  26.627   7.356 -0.2278  0.0371 -0.1455
    1W        W49626  18.413  14.548   1.667  0.0364  0.0521 -0.4893
    1W        W49627   9.454  20.719   8.947  0.1584  0.0978  0.2366
    1W        W49628  11.385  13.094   8.828  0.3622 -0.3870 -0.0086
    1W        W49629  23.313  25.449   1.004  0.1315 -0.0146  0.0175
    1W        W49630  19.469   0.624   8.723 -0.0887 -0.0367 -0.1405
    1W        W49631  11.448   2.569   3.003  0.3968 -0.1092  0.1275
    1W        W49632   5.574  13.649   2.381 -0.0210  0.0352  0.0722
    1W        W49633  13.240  19.346   7.576  0.2387  0.0436  0.1773
    1W        W49634  23.792  26.294   2.372 -0.0575  0.1130  0.1884
    1W        W49635   3.849   1.629   2.971 -0.1835  0.2616  0.2279
    1W        W49636  27.455   0.168   2.067 -0.1830 -0.0183 -0.0072
    1W        W49637  15.308  10.997   1.543  0.0630  0.1100  0.0891
    1W        W49638  19.905  25.139   1.979  0.4246  0.1337 -0.2350
    1W        W49639  11.997  16.115   2.203  0.0505  0.1511 -0.0538
    1W        W49640  19.938  16.371   8.951 -0.0956  0.2916  0.1456
    1W        W49641   7.759   0.443   7.495  0.1288  0.0569  0.3868
    1W        W49642  28.601  19.292   0.368  0.0818 -0.2317 -0.2296
    1W        W49643  23.264  21.595   2.056  0.0761  0.1203  0.2602
    1W        W49644  14.007  22.806   7.191 -0.2204  0.0034 -0.2022
    1W        W49645  26.059  25.014   9.400  0.0713 -0.1792  0.0780
    1W        W49646  23.230  20.947   0.328  0.0652  0.0081  0.1863
    1W        W49647  18.128  23.358   8.633  0.0677  0.1269  0.0227
    1W        W49648  11.388  14.068   2.168  0.1444  0.0226 -0.0728
    1W        W49649   6.969   5.750   1.248 -0.1313  0.1487 -0.0712
    1W        W49650  13.495  25.730   2.910 -0.0428  0.1186  0.2268
    1W        W49651   1.957  16.077   9.264 -0.3138 -0.0663 -0.1794
    1W        W49652  23.372  20.485   9.104  0.0926  0.0644 -0.2195
    1W        W49653   5.385  27.859   0.587  0.3048  0.0341 -0.0570
    1W        W49654   6.345  18.336   2.145 -0.0152 -0.3530  0.0687
    1W        W49655  15.196   3.255   2.163 -0.0332 -0.0017  0.1475
    1W        W49656  23.593   4.498   7.214  0.0909  0.0347  0.0739
    1W        W49657  21.563  22.767   0.744 -0.0067  0.1117  0.0523
    1W        W49658   5.283   6.591   6.522 -0.1797  0.0688  0.1342
    1W        W49659   3.840  19.462   7.343 -0.0351  0.0148 -0.0590
    1W        W49660  23.078  24.341   8.131  0.1494  0.4643 -0.1176
    1W        W49661  24.908  25.995   0.695 -0.0095 -0.1808 -0.2542
    1W        W49662  14.948  13.863   8.655  0.3897  0.1325  0.2223
    1W        W49663   0.285   7.162   9.491 -0.3000  0.1918 -0.0668
    1W        W49664  11.210  17.066   1.678 -0.0227 -0.2514  0.0291
    1W        W49665  19.239  11.526   1.640 -0.1711 -0.1510 -0.0343
    1W        W49666   7.519  21.225   0.011  0.1424  0.2519  0.1777
    1W        W49667  16.545  19.056   7.164 -0.2243  0.0189 -0.2083
    1W        W49668   8.053  25.612   8.778 -0.0194 -0.1450 -0.2359
    1W        W49669   8.484  16.447   0.928  0.1514 -0.1853  0.2312
    1W        W49670  20.226  25.964   2.314 -0.0755  0.1909  0.0606
    1W        W49671   7.653  16.911   6.727 -0.1844 -0.0565  0.1867
    1W        W49672   9.178  22.768   9.689 -0.0427  0.1452 -0.1746
    1W        W49673  15.477  10.274   1.884 -0.2004  0.4896 -0.1154
    1W        W49674   9.730  22.722   0.662 -0.4652 -0.3284  0.0196
    1W        W49675  23.902   2.808   0.510  0.0586  0.1670  0.2004
    1W        W49676   2.457  12.147   8.340  0.4983 -0.2552 -0.3174
    1W        W49677  18.105  27.140   8.189 -0.0657 -0.3334 -0.3596
    1W        W49678   4.833   4.577   7.285 -0.0207  0.0291  0.0150
    1W        W49679  26.386  15.997   6.677 -0.2811  0.0790 -0.3087
    1W        W49680  19.345  19.748   0.713  0.0343  0.0837  0.0856
    1W        W49681  10.920   0.442   3.284  0.0984 -0.0780 -0.0581
    1W        W49682  27.937   3.496   1.087 -0.0384  0.0777 -0.2298
    1W        W49683   4.314  12.145   8.685  0.2986  0.0602  0.0452
    1W        W49684  11.024  23.556   7.723  0.1485 -0.0538 -0.0105
    1W        W49685   8.155  27.752   1.875  0.3449  0.0077  0.2425
    1W        W49686  12.606  27.817   3.741 -0.0993 -0.1100 -0.2864
    1W        W49687   9.325  24.498   0.356 -0.0773  0.2273  0.1117
    1W        W49688  16.196  25.567   1.433  0.0531 -0.1271 -0.3507
    1W        W49689  23.041   3.839   0.256 -0.2918 -0.2411 -0.0587
    1W        W49690   8.622   1.420   2.721 -0.1782  0.1718  0.1820
    1W        W49691  10.973  11.507   6.967  0.0044 -0.0552 -0.2082
    1W        W49692  23.209   3.520   5.829 -0.2096 -0.3256 -0.5728
    1W        W49693  21.048   5.127   1.438 -0.0303 -0.2489 -0.1023
    1W        W49694  18.629  20.795   7.616  0.0755  0.1422 -0.0863
    1W        W49695   4.014   1.500   3.616  0.1645 -0.0338  0.4789
    1W        W49696  22.217   5.935   6.606  0.0596  0.0796 -0.0925
    1W        W49697  19.777  13.299   6.706 -0.1703  0.1328  0.2655
    1W        W49698  25.587  11.808   7.510 -0.1566  0.1000 -0.0169
    1W        W49699  23.888  21.019   7.199  0.0620  0.0867 -0.1641
    1W        W49700  17.707  26.830   1.414 -0.0298  0.0149 -0.0222
    1W        W49701   3.378  19.101   6.590  0.1572 -0.1073  0.1406
    1W        W49702   4.035  28.706   1.429  0.2529  0.0791  0.0375
    1W        W49703  23.350  15.222   7.426 -0.1333 -0.2624 -0.1559
    1W        W49704  28.967  23.000   7.037 -0.2669 -0.2554  0.2655
    1W        W49705   5.107  14.833   1.961  0.1456  0.1035 -0.1271
    1W        W49706   8.399  29.186   7.059  0.2455 -0.0527  0.2522
    1W        W49707  27.072  20.724   2.369  0.3150 -0.0584  0.2914
    1W        W49708  23.702  10.682   8.980  0.1595  0.2920 -0.1543
    1W        W49709  24.228  28.336   0.980 -0.2039  0.1940  0.1659
    1W        W49710  23.870  16.390   6.732 -0.0486  0.1018 -0.1903
    1W        W49711   4.126  10.278   1.897 -0.0449  0.1930  0.3060
    1W        W49712   8.891  17.260   9.265 -0.0421  0.1018 -0.2020
    1W        W49713   7.943  24.783   0.970  0.0811  0.0139  0.0988
    1W        W49714  16.313   2.896   7.822  0.0680  0.0596  0.0206
    1W        W49715  16.208  22.633   1.701 -0.0626  0.1965 -0.0602
    1W        W49716  26.362  27.057   6.636  0.0907  0.2594 -0.4360
    1W        W49717   0.040  15.252   7.087 -0.2391  0.0758 -0.0018
    1W        W49718  18.643  26.416   8.174  0.0835 -0.1791 -0.2676
    1W        W49719   7.114  26.140   0.904  0.2990 -0.1359  0.1122
    1W        W49720   7.238   6.361   9.024 -0.0928  0.0168  0.0703
    1W        W49721   5.458  22.643   1.551 -0.3217  0.1912 -0.0172
    1W        W49722  18.570   8.138   1.869 -0.0507  0.0270  0.1013
    1W        W49723  28.921  20.411   9.469  0.4014 -0.2854  0.1274
    1W        W49724  23.888   0.009   6.441 -0.0338  0.0633  0.0196
    1W        W49725  16.961   9.032   7.214  0.0801  0.1922  0.1886
    1W        W49726  16.690   0.525   0.529 -0.1270  0.1969  0.1149
    1W        W49727  26.830  21.432   9.054 -0.1494 -0.1390 -0.0884
    1W        W49728  15.525  24.289   2.186  0.0182 -0.1923 -0.1359
    1W        W49729  20.489  13.486   8.044 -0.3132  0.3101 -0.1070
    1W        W49730  23.965  25.341   8.518  0.0983  0.0319 -0.1025
    1W        W49731  12.293  14.002   8.308 -0.2252 -0.3488  0.1564
    1W        W49732  15.264  16.111   2.788 -0.2718  0.1862 -0.0482
    1W        W49733  24.328  15.327   2.308  0.3021  0.0143  0.2327
    1W        W49734  21.211  26.401   9.203 -0.0940 -0.0657  0.3481
    1W        W49735   6.634  17.305   8.707 -0.0853 -0.2093  0.0350
    1W        W49736  25.688  14.699   2.760 -0.2896  0.1895 -0.1813
    1W        W49737   3.480  11.318   1.289  0.1032 -0.0040 -0.0512
    1W        W49738  25.638  12.465   6.865 -0.1472  0.0304  0.0984
    1W        W49739  24.782   2.527   0.952 -0.1869  0.0131 -0.0750
    1W        W49740  17.843  24.691   9.493  0.1616 -0.1505  0.0411
    1W        W49741   1.994  17.502   0.102  0.1455 -0.0006  0.2744
    1W        W49742  25.606  22.118   0.284  0.0103 -0.1751 -0.4204
    1W        W49743  18.817   1.728   7.083  0.0522  0.0367  0.0724
    1W        W49744   4.269   6.034   9.441  0.1363  0.2804  0.0240
    1W        W49745  23.055   1.442   1.471 -0.1780  0.0199 -0.2748
    1W        W49746  10.937   3.262   0.173 -0.2019 -0.1799 -0.0379
    1W        W49747  18.038   7.980   0.061  0.2119  0.0196 -0.0566
    1W        W49748  24.472  15.287   8.809 -0.0146 -0.1946  0.1157
    1W        W49749   4.753  18.384   0.652  0.1472 -0.2311 -0.2751
    1W        W49750  16.351   5.485   8.952 -0.0790  0.0137  0.2011
    1W        W49751  27.621  18.012   1.402 -0.2260  0.3614  0.4908
    1W        W49752  23.769  14.555   8.606  0.1897  0.1859  0.4658
    1W        W49753   2.738  11.161   2.281  0.0225  0.0991 -0.2648
    1W        W49754  23.208  21.563   6.410  0.0046 -0.3566  0.1204
    1W        W49755  23.878   7.349   1.655 -0.4311 -0.1635  0.1397
    1W        W49756  14.659   6.186   2.347 -0.1077 -0.0252  0.3192
    1W        W49757  27.184  15.168   6.307  0.3596 -0.0190 -0.2372
    1W        W49758  11.901  28.212   3.457 -0.0239 -0.1997 -0.0629
    1W        W49759  22.066  25.229   1.804  0.0737  0.1934  0.0790
    1W        W49760  18.081  28.612   2.596  0.1171  0.3560 -0.3283
    1W        W49761   3.655  19.353   1.206  0.1571 -0.1831  0.1712
    1W        W49762   0.873  19.401   6.752  0.2728  0.3236  0.2239
    1W        W49763  25.253  27.400   0.496 -0.1336 -0.2999 -0.1513
    1W        W49764  19.683   9.563   0.854 -0.0135  0.0426 -0.1164
    1W        W49765  13.477   5.120   2.705 -0.0200  0.0802 -0.1820
    1W        W49766  24.746   8.895   5.783  0.1557 -0.2363  0.2429
    1W        W49767  23.513   3.476   7.751  0.2266 -0.1871 -0.2320
    1W        W49768  27.519  16.844   2.846 -0.2077 -0.1446  0.3247
    1W        W49769  15.088  12.305   8.542 -0.0181 -0.2385  0.0390
    1W        W49770   0.678  10.697   9.476  0.2484 -0.0733 -0.1761
    1W        W49771   9.668  24.841   1.106 -0.0438 -0.2106 -0.0703
    1W        W49772  15.287  13.366   8.445 -0.1935  0.0549 -0.0213
    1W        W49773   8.473  25.589   0.721  0.4040  0.1325 -0.0038
    1W        W49774  14.107  25.188   7.706  0.1928  0.0403 -0.1116
    1W        W49775   1.937  12.644   8.502  0.0428 -0.2491 -0.0125
    1W        W49776  21.590  19.208   2.413 -0.1441  0.2296 -0.0295
    1W        W49777   5.363   5.828   1.176  0.2446  0.0622  0.0140
    1W        W49778   5.145   6.866   9.255 -0.1489 -0.2423 -0.0073
    1W        W49779   1.269   1.740   1.874  0.2533  0.0922 -0.0239
    1W        W49780  13.842   2.198   8.518  0.0227  0.1811 -0.0545
    1W        W49781  12.144   2.152   4.266 -0.2176  0.2551  0.2514
    1W        W49782  13.000   7.259   0.033 -0.0599  0.1234  0.1422
    1W        W49783  28.407  24.572   8.250  0.0930 -0.1015  0.0502
    1W        W49784  21.214  17.745   8.333 -0.2920  0.3413  0.3958
    1W        W49785  25.050   9.430   6.846 -0.3785  0.1245  0.4779
    1W        W49786  21.797   9.403   9.244 -0.1148  0.0076  0.1846
    1W        W49787  15.302  11.733   9.378 -0.0024  0.0044 -0.1218
    1W        W49788  21.409   4.274   0.351 -0.1225 -0.2051 -0.1841
    1W        W49789  23.023   5.282   2.175  0.1662 -0.1774  0.3888
    1W        W49790  25.287  10.061   8.118  0.1607  0.0978 -0.2740
    1W        W49791   5.336  16.379   2.062  0.0303 -0.0228 -0.0794
    1W        W49792  22.042   0.281   2.099 -0.1803  0.0018  0.0457
    1W        W49793  25.639   6.865   7.693 -0.0877 -0.0143  0.3467
    1W        W49794   5.627  10.365   1.691 -0.0101  0.0134  0.1041
    1W        W49795   1.298  27.244   2.167 -0.0284 -0.1133 -0.0811
    1W        W49796  17.007   3.524   1.744 -0.1377 -0.0899  0.2805
    1W        W49797  13.329  29.308   1.127 -0.0122 -0.1535  0.2786
    1W        W49798  28.199  11.032   3.022  0.3978  0.0553 -0.3443
    1W        W49799   9.168  10.386   1.967  0.2097 -0.1658 -0.2156
    1W        W49800   0.366   1.127   7.922 -0.5926 -0.2258  0.4125
    1W        W49801  15.853   2.652   2.594 -0.4968  0.2937  0.0929
    1W        W49802  22.160  13.480   0.072 -0.5299 -0.1434 -0.1331
    1W        W49803  22.709  14.406   0.472 -0.2181 -0.2949 -0.0130
    1W        W49804   2.502  12.376   2.555 -0.2498 -0.1851 -0.0481
    1W        W49805  12.309  17.733   8.623 -0.0569  0.2765 -0.0344
    1W        W49806   6.044  11.014   0.661 -0.0242 -0.1766  0.1840
    1W        W49807   1.141   5.980   8.358  0.1613 -0.0931  0.0261
    1W        W49808   3.973  22.007   6.741  0.1276  0.3334  0.0115
    1W        W49809  17.012  28.954   8.224 -0.0499 -0.0408 -0.0657
    1W        W49810  16.837  25.486   3.015  0.0420 -0.0295  0.0291
    1W        W49811   8.026  15.674   7.764  0.4780 -0.0377  0.0002
    1W        W49812  18.586   6.355   2.199  0.2327  0.0193 -0.1503
    1W        W49813   2.657   9.746   2.056 -0.1565 -0.0308 -0.0638
    1W        W49814  16.755   3.681   8.049 -0.1758 -0.0163  0.0464
    1W        W49815   7.721  12.024   8.679 -0.1552  0.4367 -0.2637
    1W        W49816  16.808  16.237   9.070 -0.0970 -0.0191  0.1184
    1W        W49817  20.941  27.439   1.597  0.0887 -0.2360  0.1839
    1W        W49818  27.593   8.230   1.752 -0.1451  0.2460 -0.0192
    1W        W49819  11.812  18.380   7.318 -0.1663 -0.1637 -0.0455
    1W        W49820   6.610   9.735   7.229  0.2932  0.0843  0.1419
    1W        W49821  22.784  19.739   9.128 -0.0067 -0.0032  0.2731
    1W        W49822   6.625   5.550   9.020 -0.1033  0.0353 -0.0167
    1W        W49823  16.708  26.205   9.039 -0.0383 -0.4026 -0.0693
    1W        W49824  10.376  24.371   0.857  0.1552 -0.1755 -0.0877
    1W        W49825  15.854  12.353   2.267  0.1501  0.2259  0.0718
    1W        W49826   6.186  25.790   9.300 -0.2728 -0.2042  0.1614
    1W        W49827  26.484   8.416   7.537  0.3408 -0.0767 -0.1680
    1W        W49828   1.413  12.106   1.074  0.1078  0.1253  0.0352
    1W        W49829   7.382  23.694   7.964  0.2167 -0.0741 -0.0411
    1W        W49830  19.343   9.898   0.999 -0.1049  0.0624 -0.0139
    1W        W49831  23.553  11.179   2.840 -0.0104 -0.0737  0.0571
    1W        W49832   6.099  27.551   9.183  0.1255  0.1274 -0.1822
    1W        W49833  28.613  17.921   1.052  0.3854 -0.2345  0.0198
    1W        W49834  28.710  10.020   7.800 -0.0839  0.5674 -0.1449
    1W        W49835   0.229  26.299   1.833 -0.1291  0.0237  0.0482
    1W        W49836   3.522  20.515   9.450 -0.3872  0.2275 -0.0411
    1W        W49837  24.798   2.848   9.580 -0.1174  0.2169  0.2496
    1W        W49838   7.410   1.453   0.940 -0.1499  0.0623  0.0773
    1W        W49839  28.305   1.499   0.863  0.0878  0.0136 -0.3550
    1W        W49840  22.476  11.319   0.736  0.0953  0.0253 -0.0633
    1W        W49841   1.787  19.275   7.678  0.1608  0.0631 -0.3708
    1W        W49842  13.402  27.568   8.489  0.1799  0.1627 -0.2134
    1W        W49843   2.311   1.640   0.264  0.0511 -0.0807  0.0974
    1W        W49844  22.010   6.525   3.017  0.0970  0.0637  0.0732
    1W        W49845  20.212  18.581   1.606  0.0176 -0.1128 -0.3744
    1W        W49846   1.566   7.922   6.968  0.3191  0.2132 -0.0661
    1W        W49847  18.361  19.394   2.219 -0.1577 -0.0861 -0.1509
    1W        W49848  24.316   9.839   6.802 -0.2771  0.1750 -0.0638
    1W        W49849   1.185   3.142   7.097 -0.2909  0.0218  0.0240
    1W        W49850  14.465  13.643   0.066 -0.0838  0.1303  0.3535
    1W        W49851   4.428  12.467   1.480 -0.1324 -0.0956  0.0345
    1W        W49852  14.503   3.794   4.072 -0.2009  0.1830  0.1284
    1W        W49853   2.392  23.668   8.088  0.0604 -0.2086 -0.0721
    1W        W49854  22.317  21.360   9.329 -0.1232 -0.2697  0.1005
    1W        W49855   5.081  28.683   2.085  0.1350  0.1221  0.1801
    1W        W49856  29.341  14.120   2.216 -0.1369  0.0575  0.0007
    1W        W49857   0.721  22.060   0.166 -0.1430  0.2097  0.1585
    1W        W49858  19.156   6.533   0.236 -0.1999 -0.0436 -0.0102
    1W        W49859   4.055  13.687   9.469  0.0082  0.0833  0.0696
    1W        W49860  19.932  10.945   9.375 -0.0921  0.0059  0.0893
    1W        W49861  18.620  22.188   8.979 -0.0583 -0.0437  0.0456
    1W        W49862  28.539  19.825   1.979  0.0850 -0.3962  0.1972
    1W        W49863  26.804  19.655   2.531 -0.2150 -0.0545 -0.0315
    1W        W49864  17.592  16.776   8.785  0.0739 -0.0537 -0.2146
    1W        W49865  23.540  21.818   7.497  0.1452  0.2050 -0.2000
    1W        W49866  21.114  24.979   2.793 -0.1955  0.0949 -0.0459
    1W        W49867  27.275  14.112   9.299  0.1801 -0.0832  0.3445
    1W        W49868  23.064   1.491   7.141  0.0018  0.1415  0.2528
    1W        W49869  28.531  11.949   0.686 -0.1855  0.1067  0.0915
    1W        W49870  19.357  20.643   9.071 -0.0020  0.0429  0.2857
    1W        W49871  19.890   7.444   3.590 -0.0660  0.2788 -0.3654
    1W        W49872   2.546  19.693   1.340  0.2758  0.3264  0.0109
    1W        W49873  10.164  28.640   7.200 -0.2541 -0.1301 -0.1035
    1W        W49874  28.791  26.964   0.085 -0.2408 -0.0212  0.0163
    1W        W49875  16.346  20.707   8.007  0.2760  0.2911 -0.2520
    1W        W49876   8.434   1.155   8.808  0.2476 -0.0071 -0.1114
    1W        W49877  17.230  23.169   8.512  0.1417 -0.0234  0.0295
    1W        W49878   7.805  19.543   8.253 -0.2208 -0.2808 -0.1576
    1W        W49879   5.065  10.409   8.790 -0.0856  0.3279 -0.1387
    1W        W49880  19.036  12.065   1.288 -0.0049  0.1536 -0.2793
    1W        W49881  20.266  23.384   6.660 -0.0071 -0.0459 -0.1305
    1W        W49882   5.395  14.097   1.560 -0.1406 -0.0372 -0.0117
    1W        W49883  17.589  15.994   0.493  0.2937 -0.0184  0.0632
    1W        W49884  19.414  14.819   8.903 -0.0254 -0.2552 -0.0989
    1W        W49885  22.959  10.346   7.825 -0.0728  0.1590  0.0103
    1W        W49886   5.494   1.331   2.812 -0.0194 -0.3351 -0.0777
    1W        W49887   2.601   8.972   6.332  0.0076  0.2786  0.3122
    1W        W49888  23.902   4.750   5.306  0.1092  0.1628 -0.0260
    1W        W49889  16.524  28.519   2.785  0.0962  0.3522  0.0205
    1W        W49890   1.342  18.094   0.532 -0.1675  0.2359 -0.0988
    1W        W49891   0.710  19.005   7.475 -0.1174  0.1755 -0.3627
    1W        W49892   0.684   0.652   0.632 -0.1537 -0.1282  0.0697
    1W        W49893   2.617  25.318   1.883  0.0994 -0.2587 -0.0510
    1W        W49894  21.717   3.186   9.382  0.1022  0.0740  0.2463
    1W        W49895   2.410  24.812   8.488  0.0665 -0.0782  0.1457
    1W        W49896  22.448   3.001   7.290  0.0885 -0.4074 -0.1276
    1W        W49897  17.339   2.186   0.607 -0.0218  0.2859  0.1965
    1W        W49898  27.477  18.436   9.111 -0.2938 -0.0504  0.0039
    1W        W49899   9.221  10.631   1.213  0.1627  0.3151  0.0606
    1W        W49900  26.243  26.456   2.269 -0.2349 -0.0326  0.0686
    1W        W49901  15.696  28.990   0.415 -0.2836  0.0820  0.0041
    1W        W49902  13.923  14.670   2.116  0.0675 -0.0370 -0.0553
    1W        W49903  28.390  27.994   2.329  0.1172  0.0052 -0.0324
    1W        W49904  19.015   6.815   7.458 -0.3406 -0.1217  0.0362
    1W        W49905  19.635  11.390   0.325 -0.0995  0.0383  0.1604
    1W        W49906   9.454  21.236   0.484  0.1725 -0.0560 -0.0300
    1W        W49907   7.317  18.754   1.384  0.1597  0.1131 -0.0685
    1W        W49908  12.541  26.746   3.273  0.0481 -0.2920  0.0400
    1W        W49909   2.164   5.014   7.632  0.0983  0.0256  0.0954
    1W        W49910  13.109   6.085   1.073 -0.1503 -0.1355 -0.0783
    1W        W49911   8.890  21.163   0.715 -0.0013 -0.1828 -0.0240
    1W        W49912  10.656  21.418   5.972  0.1818  0.2642  0.2427
    1W        W49913  22.275  27.469   0.893  0.2788 -0.0029 -0.4476
    1W        W49914  28.480  15.482   5.871 -0.0471 -0.1926 -0.2156
    1W        W49915  24.656  23.578   2.614 -0.0892 -0.1911 -0.0270
    1W        W49916   5.425  24.543   9.189 -0.1140  0.2158  0.1057
    1W        W49917  26.925   7.439   7.220  0.1372 -0.1224  0.2710
    1W        W49918   9.291  15.235   7.700 -0.2108 -0.0474 -0.1156
    1W        W49919  15.738  23.060   2.475  0.1336 -0.4939  0.1374
    1W        W49920   2.562  29.175   6.852 -0.3243  0.3045  0.0435
    1W        W49921  15.728  27.941   1.908 -0.1349 -0.0584 -0.0615
    1W        W49922  21.499  16.630   7.427 -0.1229 -0.0505  0.2435
    1W        W49923  25.459   4.288   1.836 -0.0542  0.1056  0.0378
    1W        W49924  18.538   4.225   9.021 -0.1001 -0.0311  0.1447
    1W        W49925   9.007   4.980   8.219  0.1401  0.1154 -0.0197
    1W        W49926  22.377   9.461   8.206  0.0063  0.1215  0.1213
    1W        W49927  22.122   3.154   2.266  0.0345 -0.1772 -0.0464
    1W        W49928  23.051  28.197   6.095 -0.1015  0.2167 -0.0203
    1W        W49929   6.412  27.107   9.252 -0.0008  0.1751 -0.1544
    1W        W49930   6.879  19.650   0.873  0.2972  0.0536 -0.0894
    1W        W49931   2.763   7.447   1.411  0.2911  0.0133  0.2203
    1W        W49932   3.176  10.194   6.703 -0.0334 -0.3929  0.1234
    1W        W49933   8.200  20.628   8.366 -0.1624 -0.0384  0.0853
    1W        W49934  28.398  12.818   7.173  0.2064  0.0938 -0.1843
    1W        W49935  24.445  15.975   5.828 -0.5341  0.2565 -0.1439
    1W        W49936  13.735  22.737   2.937  0.0124  0.0278  0.0921
    1W        W49937   1.501  13.815   8.227 -0.0036  0.0040 -0.2483
    1W        W49938  21.940  15.939   0.340 -0.1358  0.2059 -0.1236
    1W        W49939  21.826  23.396   1.778  0.0775  0.0363  0.1144
    1W        W49940   3.305   7.914   0.196 -0.0604 -0.3121  0.0325
    1W        W49941  11.146  18.410   9.221  0.0703 -0.0305 -0.0652
    1W        W49942  18.092   4.246   3.493 -0.1734 -0.0871  0.1851
    1W        W49943  26.702   4.414   5.777 -0.0845 -0.0334 -0.2734
    1W        W49944   2.603   6.471   0.017  0.1982 -0.0680  0.1930
    1W        W49945  14.952  28.527   3.250 -0.0093  0.0500 -0.0756
    1W        W49946  28.213  11.670   0.469  0.1212  0.2177 -0.0713
    1W        W49947  10.790   9.403   1.809  0.2048  0.0646 -0.3632
    1W        W49948   5.735   9.891   3.402  0.1443  0.0492 -0.0576
    1W        W49949   6.496  15.468   1.930  0.1588  0.1044  0.4134
    1W        W49950  11.152   6.571   9.144 -0.1385  0.2676 -0.0748
    1W        W49951  10.430  28.322   4.040  0.0873 -0.1507  0.3654
    1W        W49952  22.833   3.454   7.801  0.0960  0.2972 -0.0773
    1W        W49953   3.197   0.722   0.320  0.1858  0.2690 -0.3260
    1W        W49954   6.523  15.666   0.865  0.1289 -0.0388 -0.2011
    1W        W49955  11.021  16.696   8.567  0.3427  0.0619 -0.2792
    1W        W49956  27.084   4.534   2.172 -0.2056 -0.0177 -0.0261
    1W        W49957  12.532  15.421   1.446  0.0086  0.0542 -0.0407
    1W        W49958  15.067  28.555   0.066  0.1613  0.0469 -0.1842
    1W        W49959  14.304  26.600   2.321 -0.1370 -0.2236 -0.1715
    1W        W49960  16.067  29.359   1.721 -0.0664  0.1603  0.1037
    1W        W49961  23.098  11.882   7.325  0.1061 -0.1857  0.1146
    1W        W49962  13.232  25.119   0.235 -0.0653 -0.1343 -0.1615
    1W        W49963  28.197   9.095   2.401 -0.0242  0.1541  0.1199
    1W        W49964  18.657  20.999   3.218  0.1052 -0.2344  0.0452
    1W        W49965  27.861  23.797   8.649 -0.1342  0.2098 -0.2229
    1W        W49966  26.452  18.861   8.608  0.0292  0.4220 -0.1185
    1W        W49967   4.269   8.724   1.961  0.1889  0.0128 -0.1804
    1W        W49968  23.057  18.643   9.276  0.2644 -0.0196 -0.0476
    1W        W49969  20.378  19.436   9.556 -0.1325  0.1269  0.1971
    1W        W49970  18.084  24.744   7.782 -0.0327 -0.1899  0.0611
    1W        W49971  24.646  25.446   9.613 -0.0212 -0.0588  0.1162
    1W        W49972  15.247  23.803   8.486 -0.3043  0.1446 -0.1034
    1W        W49973  13.010   7.661   8.804  0.3414 -0.0518 -0.0150
    1W        W49974  23.467   6.631   7.580  0.0613 -0.1127  0.2495
    1W        W49975   9.653  23.845   7.671  0.0181  0.0471 -0.0459
    1W        W49976  11.288  12.862   1.609  0.0016  0.0951  0.1084
    1W        W49977   2.816  10.142   1.774  0.3373 -0.2265 -0.0513
    1W        W49978   8.447  18.256   0.959  0.0871 -0.0117 -0.2944
    1W        W49979   9.363  24.959   0.697 -0.0694 -0.1135 -0.0728
    1W        W49980  17.544  16.052   7.948 -0.0692 -0.3495 -0.0747
    1W        W49981  14.290   5.452   1.499 -0.0967  0.0519 -0.1265
    1W        W49982   1.107  27.503   1.735  0.0473  0.1050 -0.3096
    1W        W49983  10.629  21.409   8.072 -0.0098  0.0571  0.4182
    1W        W49984   2.484  18.980   8.367 -0.0716 -0.2218 -0.0796
    1W        W49985  12.458   8.231   8.223  0.1105  0.0116  0.0736
    1W        W49986  17.020   8.469   0.918  0.2890 -0.1749  0.0732
    1W        W49987  27.417   0.495   9.680 -0.2328  0.0924 -0.0275
    1W        W49988   1.642  20.124   6.564  0.2388 -0.0526  0.0868
    1W        W49989  22.416  20.663   2.478  0.0534 -0.2071 -0.0510
    1W        W49990  13.845  24.563   8.760  0.1738 -0.1521 -0.4042
    1W        W49991   7.358  17.877   7.514  0.1745 -0.1721 -0.0340
    1W        W49992  23.701  11.692   6.616 -0.0341  0.0555  0.2930
    1W        W49993  20.122  28.381   8.197  0.0728 -0.1220 -0.0805
    1W        W49994  21.089  28.128   8.500  0.1291  0.0603  0.1139
    1W        W49995   1.217  19.398   9.503 -0.0689 -0.1757  0.0795
    1W        W49996  17.542  20.956   2.263 -0.0342  0.0385  0.2715
    1W        W49997   5.939   5.232   1.957  0.3005  0.1792  0.2185
    1W        W49998   2.122  16.634   1.717 -0.3413  0.3137 -0.0807
    1W        W49999  28.702   1.161   2.056 -0.4368  0.0030  0.0935
    1W        W50000   1.035   2.771   6.270 -0.0468 -0.0390  0.3283
    1W        W50001   5.608  16.959   0.525 -0.2652 -0.1054  0.2027
    1W        W50002   8.823  21.588   6.062 -0.3753 -0.0133  0.2799
    1W        W50003   1.377   3.084   1.121  0.1120  0.1357 -0.0532
    1W        W50004  19.973  20.436   2.803 -0.0311  0.0080  0.2592
    1W        W50005   1.887  26.849   1.757 -0.2305  0.1376 -0.2497
    1W        W50006  25.951  15.832   7.418 -0.1056 -0.0204 -0.0099
    1W        W50007  22.368  25.890   1.331 -0.3125 -0.1341  0.0180
    1W        W50008   3.086  20.902   9.170 -0.0647 -0.0919 -0.1443
    1W        W50009   9.251  28.625   1.607 -0.0499  0.0378 -0.1576
    1W        W50010  25.014  20.641   0.319 -0.2969  0.0050  0.2093
    1W        W50011   4.059   8.715   2.905 -0.0345 -0.0686  0.4184
    1W        W50012  28.816   5.834   6.568  0.0492  0.0940  0.3076
    1W        W50013  26.027   6.456   5.769 -0.1861 -0.3092  0.2917
    1W        W50014  13.055  20.714   7.381  0.2616 -0.0827  0.0038
    1W        W50015   9.739  28.409   7.630 -0.0255 -0.2204  0.1033
    1W        W50016   7.465  20.989   2.928 -0.2586  0.1231 -0.1247
    1W        W50017  20.604  12.753   1.746 -0.1199 -0.2716 -0.0802
    1W        W50018   7.134  15.140   0.713  0.0860 -0.2746 -0.2381
    1W        W50019   7.734  10.608   1.982 -0.0347  0.0770  0.2252
    1W        W50020  10.425  12.084   2.057 -0.0601 -0.0632  0.0735
    1W        W50021   6.305  10.150   6.318  0.0285 -0.1325  0.0847
    1W        W50022  25.382  23.397   8.406  0.4894  0.0478 -0.0115
    1W        W50023  26.649  18.543   0.583  0.2956  0.1679  0.0039
    1W        W50024  13.965  25.645   8.117  0.2739  0.0538 -0.1147
    1W        W50025  28.652  19.199   9.120  0.0032  0.0300  0.1791
    1W        W50026   8.899  29.351   1.348  0.0382  0.3021 -0.1151
    1W        W50027   3.407  29.332   9.023  0.0947 -0.1024  0.0258
    1W        W50028   4.901   6.146   1.919 -0.3609 -0.0578  0.0814
    1W        W50029   4.679   5.733   2.707 -0.0040 -0.0813 -0.0188
    1W        W50030  11.323   5.707   7.067 -0.1682  0.0167  0.2922
    1W        W50031  23.261  10.519   0.528 -0.0772 -0.0556 -0.4142
    1W        W50032  21.938  21.820   1.051 -0.0785 -0.2100 -0.1255
    1W        W50033   4.616  10.096   8.749 -0.0002 -0.0503  0.0856
    1W        W50034   1.998  26.695   7.657 -0.2136  0.0296 -0.0731
    1W        W50035  28.589  25.918   7.956 -0.1622 -0.1826 -0.1644
    1W        W50036  17.007  14.649   2.486  0.0101 -0.1380  0.1220
    1W        W50037  21.998   8.312   2.628  0.1160 -0.1764  0.1302
    1W        W50038  13.575  14.321   1.975 -0.0194  0.0817 -0.1470
    1W        W50039  11.636   5.023   8.634 -0.2508 -0.2184  0.1673
    1W        W50040  15.535  25.868   3.303  0.0033  0.0597  0.0917
    1W        W50041  18.593   1.983   9.314 -0.5452  0.1112 -0.1461
    1W        W50042   8.750  21.011   1.595  0.2348 -0.0584  0.1300
    1W        W50043  15.398  13.758   7.452  0.0597 -0.1115 -0.0521
    1W        W50044  10.279  28.376   3.146 -0.1682 -0.0110  0.0175
    1W        W50045  23.532  23.805   2.404  0.0224  0.2006 -0.1302
    1W        W50046  17.467  26.665   9.615  0.3082 -0.1129  0.2602
    1W        W50047  19.257  10.350   0.144 -0.0901 -0.0306  0.0870
    1W        W50048   5.874   6.365   1.595  0.0472  0.2426 -0.0051
    1W        W50049   7.454  24.567   5.974 -0.1139  0.2721  0.0095
    1W        W50050   9.341  15.497   1.274 -0.0358  0.3861  0.0815
    1W        W50051  12.600  20.042   1.649 -0.1687 -0.0273 -0.0778
    1W        W50052  20.130   6.662   7.406 -0.0159  0.2143  0.0174
    1W        W50053   6.716  18.926   8.852  0.2169  0.1074  0.0472
    1W        W50054  17.687  27.847   2.600  0.3753 -0.2618 -0.0915
    1W        W50055   4.853  21.254   1.293 -0.1992  0.0638 -0.2086
    1W        W50056   8.513   9.795   1.059 -0.0487  0.1230 -0.1565
    1W        W50057  16.372  17.983   0.331 -0.1891  0.1673 -0.3225
    1W        W50058   6.220  28.277   7.689 -0.2829  0.0567  0.0783
    1W        W50059  21.173  16.097   6.603  0.0210 -0.3230 -0.4330
    1W        W50060  24.480   8.375   1.788 -0.2111 -0.1335  0.0279
    1W        W50061  24.854  27.492   9.362  0.2646 -0.2469  0.2361
    1W        W50062  21.981  16.633   7.665 -0.2982 -0.3311 -0.1336
    1W        W50063   5.768  29.210   2.425 -0.4414  0.0838  0.1301
    1W        W50064  28.291  23.605   7.411 -0.1869 -0.0321  0.0026
    1W        W50065  14.989   5.750   8.395  0.0112  0.0747 -0.1227
    1W        W50066  19.742  26.245   2.357 -0.2111 -0.0902 -0.0065
    1W        W50067   7.350   1.670   7.811  0.2246  0.1445  0.0239
    1W        W50068  13.920   4.115   8.174  0.3137  0.2325 -0.3088
    1W        W50069  11.581  14.400   2.504 -0.0992 -0.1908  0.0572
    1W        W50070  20.621  16.316   2.666  0.3009 -0.1517 -0.1252
    1W        W50071   3.310   4.502   7.022 -0.0737 -0.0023 -0.0844
    1W        W50072   1.961  10.575   1.835 -0.0382 -0.2264  0.0066
    1W        W50073  17.286  26.322   0.266 -0.3555  0.0751  0.1675
    1W        W50074  18.374  22.457   7.232 -0.1267  0.1925  0.1854
    1W        W50075   6.368   8.167   7.260 -0.0527 -0.0021 -0.1983
    1W        W50076  11.453   4.604   7.963  0.2565 -0.0194  0.1438
    1W        W50077   1.040  28.436   1.378 -0.3113  0.0581 -0.1043
    1W        W50078   5.414   2.724   7.849  0.0579  0.2625  0.0755
    1W        W50079   9.809  23.347   7.864  0.0244  0.3546 -0.0704
    1W        W50080  18.005  10.619   7.688  0.0639 -0.1873  0.0260
    1W        W50081   5.025   9.502   0.342 -0.0047  0.1156  0.2394
    1W        W50082  21.679   5.729   0.533  0.1325 -0.0306  0.2461
    1W        W50083   3.062  15.976   2.222  0.0135 -0.3022 -0.2027
    1W        W50084  15.105  23.063   3.204 -0.1424  0.1846  0.0631
    1W        W50085  10.626   2.834   2.342 -0.1047  0.0344 -0.1762
    1W        W50086   5.881   9.892   8.811 -0.1075  0.2611  0.4098
    1W        W50087   6.513   4.427   7.512  0.0950 -0.0935  0.0353
    1W        W50088  25.387  10.350   7.258 -0.0738 -0.0148 -0.1690
    1W        W50089  11.438  21.166   8.698  0.1712 -0.1079 -0.0220
    1W        W50090   4.321   9.613   8.001 -0.3556  0.0495  0.1143
    1W        W50091  15.473   3.002   2.856 -0.1513 -0.1332 -0.2626
    1W        W50092   5.194  29.114   7.119 -0.2639 -0.0808  0.0532
    1W        W50093  11.345   9.470   8.377  0.0763 -0.0937  0.0959
    1W        W50094   3.522   7.506   7.139 -0.0640 -0.5271 -0.2637
    1W        W50095   5.136   3.618   1.814  0.0635  0.2039  0.0248
    1W        W50096   8.567   8.338   1.462  0.2461  0.3068 -0.1987
    1W        W50097  26.501  18.091   1.041 -0.0771  0.2687  0.0894
    1W        W50098  10.539   7.880   2.713  0.2067  0.0435 -0.2056
    1W        W50099  11.357   5.575   2.009 -0.3925 -0.1259 -0.0018
    1W        W50100  17.244  13.986   8.283  0.4125  0.2429  0.0391
    1W        W50101  12.967  17.348   1.647  0.4369  0.4057 -0.1818
    1W        W50102   9.564  21.529   2.285 -0.0106  0.1292 -0.1367
    1W        W50103  22.744  10.822   6.184 -0.0181  0.3050  0.0057
    1W        W50104  15.397   9.146   0.690 -0.3033 -0.3772  0.2251
    1W        W50105  19.688  26.022   6.987 -0.0811  0.2406 -0.0564
    1W        W50106  18.347   5.530   9.571  0.1385 -0.0653 -0.2605
    1W        W50107   3.152  25.507   8.339 -0.0088 -0.0417  0.2325
    1W        W50108   4.982   6.676   7.980  0.1830 -0.1975 -0.2090
    1W        W50109  16.067  23.990   7.977  0.1338  0.3219 -0.0339
    1W        W50110  17.623  25.760   1.939  0.0504 -0.0072  0.1990
    1W        W50111   4.968  20.726   8.889  0.4618  0.2659 -0.2062
    1W        W50112  11.490  19.433   8.344  0.0151 -0.0278 -0.4097
    1W        W50113  11.903  23.722   0.747  0.0797 -0.2295 -0.2422
    1W        W50114  15.799  15.602   1.637  0.0008  0.2421 -0.0032
    1W        W50115   8.168  18.028   9.595  0.1723 -0.0582  0.0984
    1W        W50116   0.096  16.370   7.900 -0.1295 -0.3792 -0.1355
    1W        W50117   0.918  25.069   7.166  0.1130 -0.3956  0.0043
    1W        W50118   7.404  11.741   7.592 -0.1321 -0.2098  0.0049
    1W        W50119  10.395  23.581   6.622  0.1973 -0.0662  0.0958
    1W        W50120   1.502  22.781   5.646 -0.2383  0.2799  0.0406
    1W        W50121  15.604   3.117   7.511  0.5491  0.0584 -0.1738
    1W        W50122   4.410  14.381   9.013  0.0173 -0.2108 -0.2012
    1W        W50123  18.277   6.680   0.319  0.0066  0.1109 -0.1686
    1W        W50124   5.900  18.362   0.837  0.0480  0.1192 -0.1023
    1W        W50125   5.910   0.716   1.563  0.1394  0.0405 -0.1028
    1W        W50126  21.281  21.313   8.609 -0.0590  0.3248 -0.2587
    1W        W50127   6.626  20.016   9.065 -0.2427  0.3598 -0.1229
    1W        W50128  17.117  13.188   0.788 -0.3623 -0.2604 -0.0170
    1W        W50129  10.949   4.776   3.620  0.0941 -0.1022  0.3858
    1W        W50130  12.125  20.355   1.192  0.3544 -0.3951  0.2320
    1W        W50131  17.052  28.546   7.893 -0.1792  0.0754  0.0472
    1W        W50132  27.813  15.692   6.189  0.3092 -0.2059  0.2114
    1W        W50133   5.875   4.892   8.795  0.1931  0.0847 -0.2983
    1W        W50134   5.290   9.656   3.283 -0.0223  0.0569  0.0656
    1W        W50135  13.494   4.974   3.206  0.1251 -0.0439 -0.1961
    1W        W50136   4.869   7.781   0.262 -0.0796 -0.0352 -0.0325
    1W        W50137   7.593  16.960   0.268  0.1027  0.0523 -0.0929
    1W        W50138   2.048  24.233   0.406  0.0076 -0.0551 -0.1803
    1W        W50139   3.192  13.121   6.798  0.0950  0.0639  0.1600
    1W        W50140  16.380  28.586   2.120 -0.0463  0.0071  0.1837
    1W        W50141  25.094  15.745   6.840 -0.1394  0.1880 -0.1749
    1W        W50142  25.770   0.227   7.483 -0.1574  0.0366 -0.3350
    1W        W50143   6.625  25.585   0.447 -0.1575 -0.2284 -0.1929
    1W        W50144  11.594   1.148   9.671 -0.0912  0.2507 -0.1284
    1W        W50145   6.870  21.214   6.314 -0.2882 -0.0281 -0.0678
    1W        W50146   9.043  12.247   7.179  0.1551 -0.0348  0.0100
    1W        W50147  18.282   5.248   7.092 -0.0702  0.0525  0.1008
    1W        W50148  17.999  18.411   9.007  0.3270 -0.3826 -0.0897
    1W        W50149  25.140  25.145   2.927  0.0776  0.0442  0.0648
    1W        W50150  22.951  26.960   9.073 -0.0392  0.0061 -0.3784
    1W        W50151   1.342   6.324   8.763 -0.2142  0.0221 -0.0646
    1W        W50152  12.760   2.650   7.320 -0.0210  0.2142  0.4684
    1W        W50153  27.467   5.271   1.612 -0.2994  0.0163  0.1583
    1W        W50154  24.213  20.483   8.535 -0.1757  0.2126  0.0384
    1W        W50155  11.596  10.282   9.391 -0.1631 -0.2265 -0.0711
    1W        W50156  19.048  25.125   7.710 -0.1559 -0.2665  0.1327
    1W        W50157   6.747  22.915   8.239  0.2510 -0.1473 -0.1276
    1W        W50158  28.023   5.847   8.339 -0.0832  0.0199  0.2475
    1W        W50159  10.832  15.730   0.626  0.0563 -0.0408 -0.1053
    1W        W50160   3.060  10.635   7.095  0.1403 -0.3892  0.2373
    1W        W50161   9.186  20.468   9.580 -0.2133 -0.0140 -0.0209
    1W        W50162  10.326  18.929   8.326  0.0132  0.0106 -0.0979
    1W        W50163  18.383   1.516   9.154  0.2957  0.0812  0.2350
    1W        W50164  18.640  15.609   8.009  0.1523  0.0907 -0.2178
    1W        W50165   7.050   1.417   1.320 -0.0025  0.0999  0.1154
    1W        W50166  15.459   6.618   2.029 -0.0425  0.2181  0.2113
    1W        W50167  21.154   8.349   2.053  0.3517 -0.1649  0.3346
    1W        W50168  25.206  12.162   9.642 -0.0235 -0.1546 -0.1120
    1W        W50169  26.021  26.516   7.213 -0.0101  0.0306 -0.0864
    1W        W50170   4.342  20.034   9.025 -0.2554 -0.1443  0.0683
    1W        W50171  21.102   2.460   7.766  0.0349 -0.0401  0.1136
    1W        W50172   4.562  24.290   0.520 -0.2067  0.0876  0.0615
    1W        W50173   8.600  23.225   6.771  0.0065 -0.1981  0.1489
    1W        W50174   1.657   4.944   7.510 -0.3233  0.0020 -0.3766
    1W        W50175   2.566   4.322   0.119 -0.1447 -0.0245 -0.1945
    1W        W50176  18.717  22.381   3.073  0.1867  0.0675 -0.2101
    1W        W50177   3.478   5.997   7.120  0.0218  0.1757 -0.0459
    1W        W50178   1.652  10.753   0.622 -0.2839 -0.1901 -0.2561
    1W        W50179  13.137  19.585   8.220  0.1563  0.2597 -0.0044
    1W        W50180   3.672  28.015   0.171  0.0985 -0.0191 -0.0034
    1W        W50181  14.742   2.783   0.752 -0.1743 -0.0258 -0.1526
    1W        W50182   2.617  11.213   8.512  0.0153  0.0981  0.0645
    1W        W50183  13.901  28.480   1.320 -0.0045 -0.2610  0.0498
    1W        W50184   5.959  25.301   9.082  0.2037 -0.2300  0.4260
    1W        W50185   8.283   4.271   1.376  0.1309  0.2274  0.0468
    1W        W50186  15.414  12.019   8.253  0.2335 -0.0192 -0.0960
    1W        W50187   0.589  21.619   0.385  0.0972  0.0486  0.0499
    1W        W50188  27.935   0.610   9.570 -0.1939 -0.1384  0.2205
    1W        W50189   8.683   4.619   9.094 -0.0957 -0.2297  0.0257
    1W        W50190  18.562   5.820   8.176  0.2294 -0.1623 -0.0191
    1W        W50191  16.601  22.419   9.515  0.2393  0.0102  0.0508
    1W        W50192  23.540  12.561   1.833  0.3745 -0.1798 -0.0741
    1W        W50193  17.247  14.412   8.651  0.1717 -0.2892 -0.4252
    1W        W50194  18.384   5.495   0.833 -0.0915 -0.0099  0.2092
    1W        W50195  22.501   6.822   7.072 -0.0540  0.0831  0.0671
    1W        W50196   9.161   5.264   2.361 -0.0424  0.2391 -0.0712
    1W        W50197   5.716  19.215   8.824 -0.1921  0.2406  0.3190
    1W        W50198   7.009  21.959   1.836  0.0325 -0.2283 -0.0672
    1W        W50199  26.417   7.977   2.108 -0.4166  0.1202  0.0343
    1W        W50200  11.886  16.939   1.085  0.2198  0.2397  0.0964
    1W        W50201  23.519  13.769   6.893  0.2828 -0.3218 -0.0329
    1W        W50202  19.049  16.000   7.492 -0.0228  0.0917 -0.1622
    1W        W50203  29.138  20.722   7.744  0.0738  0.0852  0.1446
    1W        W50204   1.256   4.610   9.399  0.2529 -0.0446  0.1222
    1W        W50205  10.254   7.602   0.001  0.0501  0.1128  0.0764
    1W        W50206  19.049  26.101   0.909 -0.0945  0.1005 -0.1325
    1W        W50207  28.186   2.419   8.723  0.0126  0.0774 -0.2095
    1W        W50208  14.888  24.417   2.820  0.0226  0.5310  0.0652
    1W        W50209  17.101   9.274   2.853  0.0170 -0.2172 -0.0595
    1W        W50210   0.949   6.567   6.363 -0.1474 -0.1185 -0.1889
    1W        W50211   2.333  12.531   8.830  0.0624  0.0349  0.2548
    1W        W50212   6.132  13.170   8.297 -0.0198  0.3161  0.4332
    1W        W50213  24.424  26.110   0.635  0.1654 -0.4935  0.0746
    1W        W50214  16.553   3.381   1.677  0.1224  0.0175 -0.2510
    1W        W50215  14.524   4.287   7.930 -0.2065  0.2090 -0.0424
    1W        W50216  13.289   5.661   8.187 -0.4854  0.1084 -0.0096
    1W        W50217  11.848  16.844   8.885 -0.3257 -0.1999  0.2358
    1W        W50218  16.889  23.444   1.399  0.0945 -0.1885 -0.0329
    1W        W50219  20.226   1.041   0.766  0.4074  0.0678  0.1944
    1W        W50220  26.311   7.345   8.245  0.2716  0.0482 -0.2650
    1W        W50221  27.968  12.070   6.889  0.1472  0.4165  0.1997
    1W        W50222   5.473  26.341   3.528 -0.3094 -0.1938  0.3254
    1W        W50223  24.841  26.695   9.032 -0.0304  0.0437  0.2325
    1W        W50224   8.045  15.194   1.139  0.1325 -0.1379  0.1744
    1W        W50225   0.601   5.671   6.765  0.2869  0.0112 -0.2782
    1W        W50226  14.652   5.694   0.543 -0.0929 -0.2277  0.3792
    1W        W50227  27.020  25.190   3.354 -0.1932 -0.1199 -0.0747
    1W        W50228  14.238  17.949   7.220  0.4404 -0.2292 -0.2026
    1W        W50229   4.649   9.143   0.012 -0.1578  0.2224 -0.0417
    1W        W50230   0.405   4.065   0.772 -0.0875  0.1267 -0.0980
    1W        W50231   9.517  12.056   2.296  0.0239 -0.3877  0.0954
    1W        W50232  18.287  29.354   9.186 -0.1395 -0.3011 -0.1423
    1W        W50233  11.814  22.703   0.546 -0.0372  0.1042  0.0329
    1W        W50234  11.858  12.079   0.005  0.0491 -0.1270 -0.0019
    1W        W50235   3.658  20.057   6.378 -0.0017 -0.2533  0.0616
    1W        W50236  14.437  26.183   7.430  0.1651 -0.0987 -0.1207
    1W        W50237  11.427  29.343   1.960  0.1889 -0.2471 -0.0753
    1W        W50238  25.617   5.809   9.259  0.1310 -0.0668  0.1786
    1W        W50239  12.586  18.106   8.451  0.0492 -0.0995  0.2955
    1W        W50240   7.785   8.507   0.088 -0.2344  0.2896 -0.0906
    1W        W50241  12.120  25.547   2.803  0.2224  0.1924 -0.0881
    1W        W50242  20.004  10.803   1.641  0.3029  0.2973 -0.1426
    1W        W50243   9.822   7.892   0.900 -0.0396  0.2527 -0.1996
    1W        W50244  26.650  11.361   1.570  0.1199  0.0041  0.0805
    1W        W50245  21.607  20.672   0.507 -0.0078  0.0494 -0.1152
    1W        W50246  18.111  28.105   2.806 -0.2312  0.1394  0.0856
    1W        W50247  20.319  11.461   2.145 -0.0733  0.0654  0.0102
    1W        W50248   0.881  27.410   2.611 -0.1954 -0.1472  0.1533
    1W        W50249  21.247  19.648   1.196  0.0962 -0.1550 -0.1534
    1W        W50250   5.767  29.189   8.009  0.0708 -0.2690  0.1005
    1W        W50251   6.914   7.683   9.031  0.0212  0.3683  0.4279
    1W        W50252  11.513  23.411   8.147 -0.0674  0.0231  0.4591
    1W        W50253   8.981  21.556   6.609  0.1195  0.0304  0.1434
    1W        W50254   4.138  17.267   6.344  0.2397  0.1480 -0.0510
    1W        W50255  12.384  20.214   9.080  0.1413 -0.2319 -0.5073
    1W        W50256   5.488  12.591   1.527 -0.0588 -0.2015  0.2310
    1W        W50257   8.500  25.296   8.729  0.0025  0.3918  0.0753
    1W        W50258  19.175   8.828   1.152  0.2770  0.0374  0.3592
    1W        W50259  12.839  13.762   2.683 -0.0950 -0.1923  0.2243
    1W        W50260   5.829  22.521   0.234 -0.2494  0.1386 -0.2294
    1W        W50261  20.949   8.434   8.622 -0.0085 -0.1678 -0.0662
    1W        W50262   0.435  10.353   8.442  0.1144  0.2637  0.3038
    1W        W50263   7.357   7.609   0.188 -0.1581 -0.1296  0.3618
    1W        W50264  22.222   6.698   2.559 -0.0656 -0.1511  0.1169
    1W        W50265  24.508  11.940   9.110 -0.0058 -0.0827  0.1824
    1W        W50266  29.222  16.493   1.698 -0.0903  0.0901 -0.0952
    1W        W50267  14.977  11.349   6.987 -0.1091  0.0323 -0.1303
    1W        W50268  21.491  10.425   7.387 -0.0861 -0.0390 -0.2269
    1W        W50269  13.099   0.360   0.800  0.0381 -0.0468  0.0657
    1W        W50270  19.740   6.419   2.990  0.1838  0.2709  0.1834
    1W        W50271  17.511   6.124   8.549  0.0527 -0.1355 -0.1587
    1W        W50272   2.403  26.004   6.816  0.2844  0.3534  0.1722
    1W        W50273  12.583  20.085   7.525 -0.1135  0.2073  0.1078
    1W        W50274  18.086  20.120   1.550  0.2264 -0.0875 -0.2330
    1W        W50275  23.992  25.809   1.572  0.1929 -0.3297  0.1932
    1W        W50276  15.000   4.101   0.921 -0.2272 -0.1457  0.2239
    1W        W50277  23.946  24.295   9.240 -0.1304  0.0628  0.3136
    1W        W50278  27.856  24.222   9.433  0.1599 -0.0503  0.2896
    1W        W50279   2.779  25.117   8.395 -0.0759 -0.0263 -0.2263
    1W        W50280   0.723   7.048   6.338 -0.1433  0.0641  0.3714
    1W        W50281   8.724  17.104   8.548  0.0044 -0.2547 -0.0110
    1W        W50282   5.019  27.891   7.830  0.2927 -0.1840  0.2018
    1W        W50283   3.244  20.111   0.887 -0.2202 -0.1204 -0.0556
    1W        W50284  10.940  22.307   7.023  0.1247 -0.1109 -0.3431
    1W        W50285  29.313  13.719   2.571 -0.1162  0.1559 -0.3539
    1W        W50286   1.816  12.295   6.959  0.1324  0.2497  0.2645
    1W        W50287   7.857   9.840   7.597  0.2447  0.1247  0.1175
    1W        W50288  15.620  22.183   7.969  0.1425  0.0069 -0.0579
    1W        W50289  26.543  26.832   2.600  0.0568  0.1378 -0.1600
    1W        W50290  12.251  19.405   2.087 -0.0669  0.0293  0.0242
    1W        W50291  23.122  11.830   2.076  0.0883  0.0040  0.1378
    1W        W50292   9.832   3.200   2.295  0.0813 -0.4910 -0.3299
    1W        W50293  19.529  25.392   2.273  0.2336 -0.2762 -0.0218
    1W        W50294  20.024   1.325   1.257 -0.1622 -0.2274 -0.5776
    1W        W50295   2.012  23.822   2.118 -0.1058  0.1273 -0.1488
    1W        W50296   1.769  11.608   2.106 -0.2203  0.0898  0.1457
    1W        W50297  15.099  10.648   1.124 -0.1261  0.1571 -0.1060
    1W        W50298  23.529  12.353   9.487  0.1422  0.2337 -0.1873
    1W        W50299   8.862  15.300   8.716 -0.0573 -0.0380 -0.3220
    1W        W50300  12.926  22.345   7.259 -0.1520 -0.1056 -0.2511
    1W        W50301  23.976  21.030   2.285  0.2794  0.1821 -0.0735
    1W        W50302  10.796  12.345   7.276 -0.2473  0.1754  0.1370
    1W        W50303   2.053  12.679   7.344  0.0882  0.1744 -0.4160
    1W        W50304  13.856  12.354   8.308  0.2681  0.0319  0.0109
    1W        W50305  24.172  23.478   8.331 -0.2249  0.0315  0.1252
    1W        W50306   2.555  24.416   9.054  0.3301  0.1370 -0.0944
    1W        W50307  20.330  24.035   9.530 -0.2525  0.1106 -0.2306
    1W        W50308  26.100   2.218   7.573 -0.1189 -0.0471  0.1261
    1W        W50309   4.069   5.586   1.737  0.2418  0.1137  0.1647
    1W        W50310  18.592  19.048   7.970 -0.1013  0.1090  0.1109
    1W        W50311   7.202   6.512   7.546  0.0483  0.0146  0.2160
    1W        W50312   7.952   8.054   9.569  0.2087 -0.1178 -0.2478
    1W        W50313  16.351  18.372   2.085 -0.0005 -0.2613 -0.0019
    1W        W50314  19.413   3.978   1.014 -0.3040  0.0292  0.3402
    1W        W50315   5.984  19.011   8.004 -0.0567  0.3098 -0.0969
    1W        W50316  25.780   3.955   1.971 -0.1537  0.1284 -0.0564
    1W        W50317  19.123  24.636   2.310  0.1466 -0.0967 -0.4886
    1W        W50318   3.952   1.185   1.528  0.0339 -0.4799 -0.1640
    1W        W50319  13.973  10.290   0.445 -0.1106 -0.2768  0.1507
    1W        W50320   2.065   4.910   6.632  0.0083  0.2125  0.0789
    1W        W50321   1.242  18.956   1.088 -0.0326  0.1651  0.2534
    1W        W50322  27.613   4.967   7.472  0.0532 -0.0703 -0.1681
    1W        W50323   3.295   2.786   8.738 -0.2472  0.0261  0.0315
    1W        W50324   4.996  21.984   2.110 -0.0273 -0.0976  0.2153
    1W        W50325  21.511  19.332   0.688 -0.0252  0.0496 -0.1087
    1W        W50326  23.596  18.411   6.190  0.0401  0.1599 -0.1834
    1W        W50327  14.062  24.901   2.943 -0.2009 -0.2385 -0.0387
    1W        W50328   8.739  28.072   8.730 -0.3074  0.0122 -0.0899
    1W        W50329   4.646   8.194   2.377  0.1281 -0.1736 -0.0282
    1W        W50330  12.556   8.425   1.938  0.1024 -0.1015 -0.1527
    1W        W50331  21.482  17.936   9.069  0.0136 -0.0093  0.0005
    1W        W50332  29.240  24.777   7.673  0.2291 -0.4674 -0.2339
    1W        W50333  10.242  25.247   2.691  0.3930  0.2556  0.2275
    1W        W50334   3.140  22.713   1.503  0.1063 -0.1982 -0.2372
    1W        W50335  13.564  23.972   6.978 -0.1771 -0.1775 -0.0659
    1W        W50336   1.622  19.861   9.619  0.0303 -0.0111 -0.0760
    1W        W50337  20.893  24.186   2.999  0.1007 -0.1141 -0.2712
    1W        W50338   9.720  18.294   8.128  0.3582 -0.1381 -0.0725
    1W        W50339  11.490   7.531   9.378 -0.2245 -0.0264  0.1745
    1W        W50340   4.961  15.779   8.200 -0.1211 -0.1385  0.1669
    1W        W50341  23.829  19.587   2.177  0.0116 -0.2247  0.0170
    1W        W50342  20.215  16.935   7.715 -0.1409  0.4095  0.2448
    1W        W50343  13.315   2.268   1.503  0.0618  0.0505  0.1449
    1W        W50344  28.006  28.835   0.195  0.4893  0.0400  0.3936
    1W        W50345  18.901  24.220   0.175  0.0193 -0.1763 -0.0899
    1W        W50346  26.573  18.832   7.047 -0.0837  0.0488  0.1595
    1W        W50347  28.216   7.265   9.284  0.2636  0.0984  0.1896
    1W        W50348   1.023   2.665   7.341 -0.0259  0.2071  0.0115
    1W        W50349  27.779  17.839   8.129 -0.2443  0.0868  0.0896
    1W        W50350   7.729  10.752   8.981  0.1776 -0.0962 -0.3399
    1W        W50351   3.671  15.132   1.573  0.0487 -0.2462  0.1373
    1W        W50352  15.359  27.220   8.324 -0.0129  0.3446 -0.0024
    1W        W50353   1.526  27.459   2.615  0.0419 -0.0385 -0.0879
    1W        W50354  20.401   4.898   3.302  0.1033 -0.1520  0.2823
    1W        W50355  15.218  25.439   0.419  0.2707 -0.0450 -0.2246
    1W        W50356   3.402  17.585   8.946  0.0957 -0.2438  0.1785
    1W        W50357  14.517  17.243   7.590  0.1309 -0.2150 -0.0680
    1W        W50358  20.524   1.274   8.441  0.3527 -0.0672  0.1267
    1W        W50359  10.621  24.595   6.432 -0.2829 -0.1864 -0.0174
    1W        W50360   6.810   2.581   0.513  0.3494 -0.0966  0.2246
    1W        W50361  19.272   8.697   1.914  0.0518  0.1022 -0.1123
    1W        W50362  11.448   9.779   0.969  0.1652 -0.2544 -0.0108
    1W        W50363  24.756  20.546   8.196 -0.0042  0.0034 -0.1701
    1W        W50364   1.170  22.439   8.506 -0.1802  0.2073 -0.2595
    1W        W50365   7.993   9.281   8.987  0.0995  0.0987  0.1941
    1W        W50366  10.043   4.116   0.702  0.2469 -0.0296 -0.0355
    1W        W50367   3.318  11.151   9.611  0.1322 -0.0076  0.2534
    1W        W50368  16.701  19.496   0.774  0.0396 -0.0202 -0.1962
    1W        W50369  26.285  12.577   1.315 -0.1607 -0.0647 -0.0793
    1W        W50370   6.655   8.994   2.692  0.1600 -0.0285  0.1980
    1W        W50371  25.958   4.438   2.809  0.0135  0.0741 -0.2180
    1W        W50372  13.678  21.318   7.629 -0.1994  0.2892  0.1934
    1W        W50373   5.975  17.216   6.803  0.0630  0.1457  0.0096
    1W        W50374  11.153  27.981   7.865  0.3469  0.4098  0.0066
    1W        W50375  24.810  13.997   6.836 -0.0424 -0.1956  0.0105
    1W        W50376  16.144   0.160   9.556 -0.0572  0.1034  0.1515
    1W        W50377   7.912   7.101   2.492  0.1328  0.0923  0.0187
    1W        W50378   8.316  16.901   1.694 -0.3847  0.5834 -0.0707
    1W        W50379   8.768  18.886   7.468 -0.1707 -0.0456 -0.1252
    1W        W50380   4.901   1.063   1.344  0.2207  0.3352  0.0008
    1W        W50381  14.607  17.359   8.966  0.3036  0.2532  0.0648
    1W        W50382  14.448  26.180   7.982  0.0775  0.0731 -0.4171
    1W        W50383  12.397   5.757   8.569  0.1177 -0.1122  0.0568
    1W        W50384   5.831   8.692   2.348  0.2226 -0.0207  0.3427
    1W        W50385   8.388  28.029   2.713  0.4068  0.0474  0.1086
    1W        W50386   7.654  25.805   8.969 -0.1828  0.1777 -0.2312
    1W        W50387   0.187  24.158   1.963  0.0431 -0.0144  0.2728
    1W        W50388  20.422   8.421   3.898  0.0260  0.0372  0.3227
    1W        W50389  27.471  26.241   8.852 -0.1665  0.0891 -0.0263
    1W        W50390  26.587   8.976   1.877  0.1389  0.1564  0.0604
    1W        W50391  27.341  20.016   7.075  0.2705  0.0699 -0.2344
    1W        W50392  12.240   4.517   0.699  0.0266 -0.1418 -0.0051
    1W        W50393  13.820  28.691   8.146  0.2359 -0.1047  0.0708
    1W        W50394  23.386   5.808   0.701  0.0497 -0.0044  0.0737
    1W        W50395  18.884  15.678   2.156  0.0029  0.0502 -0.2726
    1W        W50396   8.781  25.400   1.076  0.1175 -0.1696  0.0162
    1W        W50397  22.078  14.996   0.928 -0.3537 -0.0682 -0.1438
    1W        W50398  15.759   2.019   6.791 -0.2747 -0.2309  0.0722
    1W        W50399  26.445   3.053   6.625 -0.0297 -0.3235 -0.1343
    1W        W50400  10.872  21.583   0.673 -0.1465 -0.0100  0.0110
    1W        W50401   5.348  16.580   7.141  0.0445 -0.3008  0.1949
    1W        W50402  12.168  16.459   0.329 -0.1326 -0.3510  0.5393
    1W        W50403   5.408  16.933   7.481  0.0314  0.1889  0.0537
    1W        W50404  12.783  23.998   0.781  0.0518  0.4082 -0.0728
    1W        W50405   9.292   3.067   8.151  0.0502  0.1865  0.4285
    1W        W50406  18.210  25.596   1.680  0.1016 -0.1061  0.1254
    1W        W50407  19.905  15.831   8.719  0.2300 -0.1094 -0.0355
    1W        W50408   4.611  15.194   2.346 -0.2253  0.1915 -0.3590
    1W        W50409  17.587  16.755   7.345 -0.0056  0.0931 -0.2497
    1W        W50410  21.554  13.801   2.378  0.2334 -0.0304 -0.0701
    1W        W50411   0.755   6.107   7.191  0.2891  0.0960  0.0351
    1W        W50412   5.258  23.307   6.366  0.0223  0.1804  0.1002
    1W        W50413  29.328  16.845   0.338  0.1210  0.1474 -0.0121
    1W        W50414  28.569   9.141   2.067 -0.2646 -0.1914  0.0437
    1W        W50415  22.033  11.773   1.256 -0.3091  0.1213 -0.2769
    1W        W50416   0.387  24.452   8.587 -0.0682 -0.1333  0.0206
    1W        W50417  23.068  23.752   2.360  0.1158  0.2206  0.0189
    1W        W50418   7.778   1.356   7.796  0.0266 -0.0591  0.3265
    1W        W50419  17.319   8.915   1.887  0.1995  0.0804 -0.2952
    1W        W50420   9.678   2.233   8.328  0.0177  0.0203  0.2989
    1W        W50421   1.794  28.490   9.041 -0.0956  0.0054 -0.3087
    1W        W50422   0.169  19.330   8.748  0.2417 -0.0492  0.0850
    1W        W50423  24.248  20.657   8.009 -0.1109 -0.1976  0.0110
    1W        W50424  13.846  18.162   2.358 -0.0226 -0.0098  0.1682
    1W        W50425   0.449  27.827   2.585 -0.3045 -0.0646  0.2471
    1W        W50426  16.229  24.409   7.772 -0.0412 -0.0507  0.0841
    1W        W50427  15.534  21.433   1.813 -0.3233  0.2802  0.0014
    1W        W50428   8.130  15.549   9.684 -0.0291  0.1284  0.1497
    1W        W50429  23.374   3.122   8.848 -0.1943 -0.1337  0.0266
    1W        W50430   1.807  19.998   0.367 -0.0793  0.4257  0.2235
    1W        W50431  18.425  20.485   0.834 -0.3318 -0.1656 -0.3522
    1W        W50432  16.133   4.739   2.386 -0.2971 -0.2799  0.1445
    1W        W50433  10.825  25.778   1.874 -0.0666 -0.0394 -0.0055
    1W        W50434  11.918  25.410   7.418  0.3169  0.1974 -0.3312
    1W        W50435   2.200   9.092   7.014  0.1764  0.0106  0.0240
    1W        W50436  27.072  10.823   6.428  0.3394 -0.2118 -0.1217
    1W        W50437  22.512  11.842   1.446  0.0608  0.2279  0.1188
    1W        W50438   5.806  21.617   5.384  0.1186  0.1567  0.0920
    1W        W50439   9.816  25.827   7.518 -0.1285 -0.2306  0.3435
    1W        W50440   8.817  14.770   8.623 -0.0021 -0.0123 -0.2077
    1W        W50441  26.050  18.296   2.531  0.2297  0.3593 -0.3479
    1W        W50442  16.731   3.564   6.732 -0.1588 -0.2926  0.1383
    1W        W50443  27.291   5.229   9.575  0.2192  0.0787  0.1443
    1W        W50444   2.882  17.447   7.142  0.0951 -0.1419 -0.1385
    1W        W50445  23.342  26.771   7.949 -0.0225  0.1062  0.2047
    1W        W50446   9.615  18.092   1.266 -0.1846  0.1949 -0.1148
    1W        W50447  28.843   6.427   6.906  0.1396  0.2972 -0.0094
    1W        W50448  21.853  28.130   8.140  0.2724 -0.0095  0.1202
    1W        W50449  24.007   0.483   0.452 -0.2682  0.0593 -0.2818
    1W        W50450  26.027  21.584   9.271  0.1675 -0.1223 -0.0024
    1W        W50451  21.886  13.121   1.431 -0.1646  0.0505  0.1501
    1W        W50452  12.217  16.904   0.180  0.1967  0.0900  0.0007
    1W        W50453   9.301  25.594   3.071 -0.0499 -0.0223  0.0631
    1W        W50454   5.150   0.273   0.380 -0.0236  0.2418 -0.1273
    1W        W50455   4.162  17.734   1.135  0.0452 -0.2169  0.1245
    1W        W50456  16.164   3.711   4.052  0.3262  0.1234  0.0886
    1W        W50457   5.635  24.811   0.940  0.0751 -0.3150  0.2213
    1W        W50458   4.150  15.999   8.690 -0.1633  0.0156 -0.2226
    1W        W50459  27.329  23.721   7.785 -0.2170 -0.0551 -0.0233
    1W        W50460  13.516   1.807   3.638 -0.2691 -0.4580  0.0488
    1W        W50461  23.318  18.367   7.869 -0.2357 -0.3438 -0.0818
    1W        W50462  24.379  10.130   2.139  0.0730 -0.1629 -0.2339
    1W        W50463   3.974  29.112   1.731 -0.0516 -0.0163 -0.1517
    1W        W50464  11.902  20.969   6.243  0.2331 -0.2351 -0.2197
    1W        W50465  17.084  13.252   8.107 -0.2614 -0.1536 -0.1571
    1W        W50466   0.834   2.960   8.373 -0.2279  0.0403  0.0777
    1W        W50467   7.353  25.030   7.036  0.3676  0.0236  0.1208
    1W        W50468   0.531  25.028   6.830 -0.0238  0.1416 -0.1334
    1W        W50469  17.910  26.599   0.694 -0.1834 -0.2005  0.1288
    1W        W50470   0.514  15.272   6.206  0.0129 -0.1796  0.0672
    1W        W50471  27.168  21.078   8.857  0.0724  0.2329  0.1981
    1W        W50472  14.888  25.379   2.645 -0.1550  0.0811 -0.0497
    1W        W50473  27.151   2.897   6.009 -0.2193 -0.0127 -0.1348
    1W        W50474  20.140  11.149   8.877  0.0409  0.0131  0.0644
    1W        W50475   5.114  21.830   1.127  0.0924 -0.2755 -0.0844
    1W        W50476   8.915  28.845   1.980  0.1850 -0.0784 -0.0928
    1W        W50477  28.068   0.378   3.433 -0.1738  0.2723 -0.1908
    1W        W50478  28.966   0.748   2.642  0.0181 -0.1027 -0.0035
    1W        W50479   4.743  17.365   7.032 -0.0762 -0.5783 -0.3484
    1W        W50480   5.059  14.218   8.817  0.2629 -0.0396  0.0561
    1W        W50481   8.818   8.754   1.067  0.1375  0.1354  0.0125
    1W        W50482  26.223  10.166   1.117  0.1968  0.3939 -0.1219
    1W        W50483  14.182   3.751   0.772  0.1616  0.0782  0.0282
    1W        W50484  11.681  11.128   1.072 -0.0641 -0.2312 -0.0178
    1W        W50485  18.431  15.320   0.401 -0.1120  0.1404 -0.0461
    1W        W50486  22.912   1.473   0.910 -0.1370 -0.1378 -0.4985
    1W        W50487  22.953  26.400   9.263  0.0290  0.0511  0.0051
    1W        W50488  14.294  28.109   9.371 -0.0566 -0.0276  0.0776
    1W        W50489  12.908  24.794   1.178 -0.2914 -0.4946  0.1174
    1W        W50490  19.210   3.833   7.904  0.0859  0.1996 -0.0460
    1W        W50491  23.979  13.528   0.894  0.3480  0.1301 -0.0347
    1W        W50492   2.804  20.347   1.170 -0.0151 -0.1935 -0.3591
    1W        W50493  18.487  16.038   2.258 -0.4153  0.0839 -0.0593
    1W        W50494  24.824   1.675   0.113  0.2159 -0.0185 -0.0728
    1W        W50495   7.120  13.818   7.064  0.0882 -0.1633  0.3103
    1W        W50496   7.531  20.268   1.370  0.0869  0.2395 -0.1295
    1W        W50497   7.052   5.181   0.239  0.1978 -0.0502 -0.0182
    1W        W50498  13.266   8.122   1.316  0.1108 -0.2078 -0.0403
    1W        W50499  10.267  19.066   7.843  0.0664 -0.0989  0.0528
    1W        W50500  28.892  13.933   2.950  0.1572  0.0262  0.0267
    1W        W50501   8.593   6.100   0.702  0.0015 -0.0756 -0.0654
    1W        W50502   4.869  22.940   2.103  0.0267 -0.1135  0.0448
    1W        W50503   4.042  10.728   0.976 -0.1802 -0.1849  0.0715
    1W        W50504   5.794  29.317   2.867 -0.2764  0.0554 -0.2012
    1W        W50505   1.505  20.746   7.570 -0.0729  0.1363  0.0678
    1W        W50506  17.756   9.758   2.130  0.1448 -0.1187 -0.0686
    1W        W50507   3.312  20.060   9.173  0.0973 -0.1364  0.0155
    1W        W50508  21.358  16.207   7.049 -0.0024  0.0915  0.1403
    1W        W50509  20.941  12.202   8.298  0.3668  0.0014  0.1151
    1W        W50510  12.630  25.382   9.112 -0.0750  0.2342  0.0758
    1W        W50511  22.387   4.705   1.566  0.0557  0.1189  0.2959
    1W        W50512  21.342  10.732   3.289  0.0256 -0.0545  0.0633
    1W        W50513   5.822  22.102   7.995  0.2214 -0.2270  0.3528
    1W        W50514   9.577  21.801   7.266 -0.2110 -0.1787 -0.2739
    1W        W50515  16.839  11.247   7.421  0.0452 -0.2483  0.4533
    1W        W50516  21.921  23.586   8.680  0.1564 -0.2379  0.0291
    1W        W50517   1.958   0.515   8.262  0.0844  0.2112  0.1851
    1W        W50518  10.871  27.591   1.054  0.3441 -0.2534  0.1224
    1W        W50519  26.836   6.968   7.027 -0.1399 -0.1008  0.0985
    1W        W50520   4.796  23.950   6.822  0.1834 -0.1024  0.2575
    1W        W50521  11.005  24.614   7.298 -0.0266 -0.0791  0.0735
    1W        W50522   3.248  13.565   8.134 -0.1372  0.0157  0.0361
    1W        W50523   3.706  18.832   7.722 -0.1122  0.2593 -0.1495
    1W        W50524   3.746   6.963   6.496  0.2991 -0.1410  0.4056
    1W        W50525  13.838  16.095   7.870 -0.1009 -0.1803  0.1158
    1W        W50526  22.977   0.646   7.831  0.0705  0.0975 -0.0684
    1W        W50527   0.791   2.532   0.410 -0.3497  0.1993 -0.2582
    1W        W50528  28.975  27.931   7.066  0.0969  0.4512 -0.0354
    1W        W50529   7.603   2.015   0.346 -0.0119 -0.2553 -0.0732
    1W        W50530  12.702   5.857   3.051  0.1568  0.3213  0.0740
    1W        W50531  19.138  24.549   1.813 -0.3079 -0.1947 -0.1897
    1W        W50532  14.191  13.727   1.083 -0.1546  0.0029  0.1911
    1W        W50533   6.089  12.987   2.748  0.0560 -0.1480 -0.2173
    1W        W50534   5.330  27.171   2.125 -0.0265  0.0211  0.0198
    1W        W50535  19.602  23.061   0.436  0.0113  0.1721  0.0098
    1W        W50536  14.081  11.188   2.049  0.0211 -0.1866  0.3883
    1W        W50537  13.368  27.386   0.474 -0.2246 -0.0043  0.2643
    1W        W50538  12.191  26.181   8.671  0.3551 -0.1197  0.3715
    1W        W50539   8.193  21.291   1.939 -0.2638 -0.1307 -0.1089
    1W        W50540  17.099   5.807   1.885  0.3306 -0.3485 -0.1799
    1W        W50541   0.476  15.156   6.792 -0.2963 -0.1344  0.0444
    1W        W50542   4.510  16.360   8.686  0.1793 -0.1411  0.1785
    1W        W50543   8.102   2.089   2.214 -0.2574  0.0030 -0.2684
    1W        W50544  21.884   8.548   6.879 -0.3705 -0.2568  0.1584
    1W        W50545  13.371  25.590   0.747 -0.2075 -0.0147  0.1255
    1W        W50546  11.331   3.182   4.204 -0.0545 -0.0228  0.0489
    1W        W50547   0.122   2.534   0.922  0.3026  0.1325  0.1619
    1W        W50548   4.004   8.620   0.605 -0.1504  0.2485  0.0660
    1W        W50549  10.489   5.470   7.215 -0.2387  0.1555 -0.1207
    1W        W50550  12.604   3.254   1.712  0.2111  0.0414  0.3417
    1W        W50551  20.981  17.599   2.226 -0.0605 -0.2574  0.0415
    1W        W50552  10.098   1.559   1.117  0.3764 -0.0276 -0.1835
    1W        W50553  11.012   1.788   0.916  0.1281 -0.1410  0.0890
    1W        W50554  22.460  10.119   2.279 -0.0108  0.1960 -0.1240
    1W        W50555   0.846  19.460   7.418  0.2619 -0.1633 -0.0414
    1W        W50556  21.485  16.162   0.340 -0.0726  0.0755 -0.0510
    1W        W50557  24.883   9.483   0.257 -0.1847  0.1228 -0.2046
    1W        W50558   5.802   5.901   0.969 -0.1365  0.1221 -0.2094
    1W        W50559   3.862  25.685   7.856  0.1430 -0.3086  0.2213
    1W        W50560  22.035  24.390   8.577 -0.1564  0.0969  0.0081
    1W        W50561   4.671   1.227   8.911  0.0306 -0.2696  0.0300
    1W        W50562  19.898   0.879   9.514  0.0022  0.0191  0.1342
    1W        W50563  13.231   4.170   9.290 -0.0420  0.3927 -0.1221
    1W        W50564  18.329   1.402   1.295  0.2224  0.0596  0.1374
    1W        W50565  20.658  20.312   1.391  0.1456  0.1024  0.0391
    1W        W50566  23.453  29.008   6.419 -0.1046  0.0795 -0.4031
    1W        W50567  10.433  17.359   7.366 -0.1818  0.1832  0.0342
    1W        W50568  25.376  21.920   3.092  0.1689 -0.1995 -0.0070
    1W        W50569  23.568  21.935   8.196  0.1948  0.0053 -0.1888
    1W        W50570   0.552   8.669   7.598  0.0313 -0.2377  0.0237
    1W        W50571  25.043   3.903   1.328 -0.2235  0.0898  0.0435
    1W        W50572   2.460  26.673   2.701 -0.0184  0.0626  0.0783
    1W        W50573  22.259  13.694   7.027  0.2413 -0.3398 -0.1921
    1W        W50574   5.892  23.379   8.255  0.1330  0.0718  0.1146
    1W        W50575  29.212  19.959   1.693  0.1734 -0.1513 -0.4032
    1W        W50576  20.712  15.436   7.305 -0.0326 -0.3121  0.1245
    1W        W50577   6.256   8.552   8.971 -0.0236  0.0931 -0.0347
    1W        W50578  23.201  12.517   0.110  0.2968 -0.1804 -0.0052
    1W        W50579  26.173  27.873   8.556 -0.0283  0.0122  0.0882
    1W        W50580   2.035  24.782   6.779  0.0036 -0.0562 -0.2659
    1W        W50581  25.948   8.140   1.987 -0.0969  0.1078 -0.0701
    1W        W50582   8.928   4.479   9.520  0.0861  0.1920  0.0388
    1W        W50583   3.144   1.251   2.477 -0.2478  0.0100 -0.1839
    1W        W50584  17.107  27.155   1.812  0.1572 -0.1279  0.1934
    1W        W50585  25.800  21.336   0.775 -0.0223  0.2346  0.1710
    1W        W50586  14.147   4.429   2.997  0.1045  0.0088  0.1368
    1W        W50587   7.238  19.716   6.425  0.1069 -0.0533  0.1421
    1W        W50588  10.963  15.135   9.047 -0.0386 -0.0241 -0.1489
    1W        W50589   9.966  10.852   0.231  0.2582 -0.0559  0.0359
    1W        W50590  24.676   6.466   8.247  0.2107 -0.2505 -0.0897
    1W        W50591  17.368  28.744   1.065 -0.1262  0.1370 -0.1984
    1W        W50592   6.119  17.592   1.687 -0.0321 -0.0457  0.0372
    1W        W50593   8.878  20.071   8.319  0.1084 -0.0813 -0.0081
    1W        W50594   9.354   4.070   2.243 -0.2814  0.1335  0.0118
    1W        W50595  21.003  19.312   1.568 -0.0522  0.2563 -0.0710
    1W        W50596  10.378   7.125   0.964 -0.2671 -0.1806  0.1795
    1W        W50597   6.062  18.659   7.681 -0.0062  0.0378  0.2237
    1W        W50598  29.275  17.387   7.062  0.1098 -0.0900 -0.1345
    1W        W50599   6.753  14.182   2.043 -0.0443  0.0340  0.1093
    1W        W50600  25.535  25.430   3.333  0.1494 -0.1826 -0.4595
    1W        W50601   4.224   4.699   7.876  0.1366 -0.1062  0.0683
    1W        W50602  13.432   3.189   1.933  0.0318  0.3099  0.3156
    1W        W50603  27.393  27.639   0.394 -0.1262 -0.0891  0.2592
    1W        W50604  13.491   3.277   8.080 -0.0373 -0.1165 -0.0440
    1W        W50605   2.452  18.582   6.503 -0.0597 -0.1069 -0.1617
    1W        W50606  25.266  22.251   0.670 -0.6818  0.2021 -0.1112
    1W        W50607   7.879  14.022   8.850 -0.0585 -0.0216  0.1297
    1W        W50608  18.637  12.774   8.790  0.2611 -0.3230 -0.2171
    1W        W50609  16.379   1.662   8.420 -0.0404  0.1066 -0.1660
    1W        W50610  17.117  14.760   1.669 -0.2064 -0.4749  0.3217
    1W        W50611  21.852   4.867   7.720  0.0422 -0.2156  0.2614
    1W        W50612   3.385  24.472   1.710  0.0126  0.0919 -0.2207
    1W        W50613  16.082   2.181   1.761 -0.2977 -0.0233 -0.1855
    1W        W50614   8.262  25.852   2.994  0.0377 -0.2033  0.1091
    1W        W50615   0.356   1.349   2.016  0.1472  0.0988 -0.1407
    1W        W50616  25.847  14.731   8.422  0.2629 -0.2651 -0.0928
    1W        W50617  14.424   4.292   0.829  0.0272  0.1953 -0.2344
    1W        W50618  15.201  23.731   9.089  0.0707 -0.0681 -0.5058
    1W        W50619  19.896   0.485   2.013 -0.1079  0.3105  0.0137
    1W        W50620  17.769  13.889   9.434 -0.2747 -0.0275 -0.0224
    1W        W50621   3.073   4.366   2.628 -0.0575 -0.0971  0.3828
    1W        W50622   8.621  17.754   1.194  0.0025  0.1046 -0.0226
    1W        W50623   5.152  22.289   2.803 -0.2750 -0.2816 -0.0038
    1W        W50624  28.336   4.886   1.635 -0.1061  0.2480  0.2598
    1W        W50625   0.689  18.122   2.469  0.1774 -0.0711 -0.1190
    1W        W50626  25.401  11.338   9.314  0.1629 -0.1397 -0.0077
    1W        W50627  11.856  13.786   8.306  0.2828 -0.0174 -0.0393
    1W        W50628   1.640  29.125   6.832 -0.0639  0.0286  0.0776
    1W        W50629  18.744   6.585   6.550 -0.0737 -0.0166  0.0057
    1W        W50630  21.868   8.893   0.919  0.0929  0.2453 -0.0489
    1W        W50631  25.338   2.199   0.769  0.3189 -0.1975 -0.3592
    1W        W50632  11.547  16.530   1.466  0.0170 -0.1768 -0.1628
    1W        W50633  22.139  18.603   9.649  0.0870 -0.1675  0.0022
    1W        W50634  12.856   4.414   0.417 -0.0681  0.1089 -0.1649
    1W        W50635   3.962   3.255   6.949 -0.1327  0.2394  0.3020
    1W        W50636   0.709  25.993   6.635  0.1936  0.0006 -0.0002
    1W        W50637  13.471   4.564   2.844 -0.1447 -0.1374 -0.0962
    1W        W50638   0.381  20.610   6.766 -0.1221  0.0803 -0.0458
    1W        W50639  26.708  21.959   1.237 -0.3038 -0.1510  0.3316
    1W        W50640  18.405  18.001   2.549 -0.2351 -0.0754 -0.2533
    1W        W50641  16.133  14.716   1.547 -0.0921  0.2613  0.2496
    1W        W50642  26.978  29.153   0.261 -0.0904  0.1249  0.0530
    1W        W50643  20.254   6.202   7.774 -0.0334  0.0230 -0.1089
    1W        W50644  11.361  28.991   3.614 -0.0363 -0.1487 -0.0418
    1W        W50645   4.135  25.392   8.705  0.1125  0.0311 -0.2337
    1W        W50646   5.157  29.071   0.303 -0.0772 -0.1506 -0.0858
    1W        W50647  17.415  17.625   2.038 -0.3474 -0.3652  0.1342
    1W        W50648  21.823  12.609   2.338 -0.0130  0.4411  0.4076
    1W        W50649  20.912   4.379   2.121  0.0459 -0.0190  0.1618
    1W        W50650  20.198   3.194   7.091 -0.3730  0.3974 -0.3794
    1W        W50651   0.344  25.324   7.648  0.1470 -0.1016 -0.1424
    1W        W50652  15.526   9.810   7.583 -0.3672  0.2137  0.0092
    1W        W50653  20.953   8.004   8.900  0.1394 -0.0857  0.0528
    1W        W50654  12.212  16.520   2.426  0.0882  0.0413  0.1121
    1W        W50655  19.775  28.960   7.830  0.0938  0.1071 -0.1732
    1W        W50656  21.698   0.528   9.665 -0.2685 -0.0596 -0.4157
    1W        W50657   9.318  12.451   2.107 -0.0242 -0.1030  0.1851
    1W        W50658  26.859   1.291   1.894  0.1959  0.0190 -0.2937
    1W        W50659  15.894  22.992   1.604  0.1406 -0.0238 -0.2576
    1W        W50660  26.941  13.129   7.949  0.1923 -0.1689  0.0309
    1W        W50661  25.905  24.009   1.689 -0.0392 -0.0636 -0.0052
    1W        W50662  14.976   1.340   2.570 -0.0125 -0.3160  0.4285
    1W        W50663   7.655  25.877   6.452  0.0204 -0.1175  0.1744
    1W        W50664  18.964  14.649   8.475 -0.3409  0.4234 -0.1467
    1W        W50665   6.064  18.891   7.255  0.2077  0.0359  0.1959
    1W        W50666  22.671  23.205   1.069 -0.2365 -0.3852  0.0997
    1W        W50667  16.379   8.991   8.295 -0.0135 -0.0129  0.2081
    1W        W50668  23.435  16.848   7.911 -0.2692  0.1467  0.1757
    1W        W50669  22.205   4.272   2.769  0.1668 -0.0146  0.2424
    1W        W50670  11.573  14.568   7.755  0.1010 -0.2219  0.1963
    1W        W50671  20.828   2.479   7.175  0.0840 -0.3909 -0.0328
    1W        W50672   6.456  12.857   1.774 -0.0045 -0.0029 -0.2591
    1W        W50673   5.982   8.186   9.658 -0.1820 -0.0463  0.2445
    1W        W50674   0.263  12.868   0.776  0.3856 -0.0994 -0.2474
    1W        W50675  17.993   9.318   0.677  0.1668 -0.0580 -0.0609
    1W        W50676   0.277   6.152   8.654  0.1054  0.2251  0.1739
    1W        W50677  26.562  29.144   9.401 -0.3162 -0.0268  0.0609
    1W        W50678  29.295  13.817   1.811  0.0950 -0.1236  0.3522
    1W        W50679  26.619   4.859   5.987  0.1044  0.2121 -0.0463
    1W        W50680   5.442  26.261   8.221  0.1639  0.1569 -0.0447
    1W        W50681   7.847  18.553   9.001  0.1290 -0.0665 -0.0959
    1W        W50682  27.069   3.098   9.027 -0.2010 -0.0121  0.1747
    1W        W50683  11.652  15.266   1.982 -0.1421 -0.1062 -0.1434
    1W        W50684  13.799  13.554   8.816 -0.0154 -0.0036  0.1219
    1W        W50685  13.868  13.099   8.493 -0.0661  0.3792  0.2528
    1W        W50686   2.366  29.013   7.301  0.3069 -0.3276  0.2481
    1W        W50687   5.160  27.004   0.103  0.1768  0.2940  0.2677
    1W        W50688  24.520  14.362   0.529 -0.2403  0.1353  0.0002
    1W        W50689  23.073   3.766   9.458  0.1290 -0.2007 -0.2623
    1W        W50690  28.088  21.191   8.852 -0.0784  0.1541 -0.0320
    1W        W50691   5.708   7.222   7.061 -0.1034 -0.1922  0.0871
    1W        W50692  28.040   6.241   6.465 -0.1156 -0.2554 -0.3159
    1W        W50693  27.389  22.442   6.537  0.1857 -0.0822  0.1582
    1W        W50694  26.181   4.841   1.321 -0.3165  0.0909  0.1132
    1W        W50695  19.470   1.494   3.324 -0.0668 -0.2555 -0.1529
    1W        W50696  14.210  29.349   8.267  0.3022 -0.0887 -0.2077
    1W        W50697   9.330  19.811   1.504 -0.1067 -0.0999 -0.1845
    1W        W50698  25.561   5.795   2.078 -0.4995 -0.0357 -0.0963
    1W        W50699   0.816  16.707   0.901  0.2537 -0.0801  0.2191
    1W        W50700   7.999  18.097   0.761  0.0589  0.1618 -0.0398
    1W        W50701  21.555  11.839   0.634 -0.4747 -0.2772  0.3517
    1W        W50702  29.076   4.363   1.035 -0.0560  0.0365  0.0179
    1W        W50703  20.255  14.154   0.605  0.1960 -0.0550 -0.1876
    1W        W50704  17.606   3.759   8.064  0.0588 -0.2164 -0.0993
    1W        W50705   6.478  28.871   8.530 -0.0393  0.2058  0.1058
    1W        W50706   8.848   0.566   3.201  0.0564  0.0735 -0.3032
    1W        W50707  13.633  17.737   0.518 -0.1211  0.2234  0.0463
    1W        W50708  23.185  21.605   1.550  0.0465 -0.1407 -0.0311
    1W        W50709   9.128  23.277   6.630 -0.0889  0.0387 -0.0713
    1W        W50710  16.322  10.950   9.645 -0.1649  0.1339 -0.3361
    1W        W50711   0.726   3.922   9.184 -0.1576  0.1022  0.1081
    1W        W50712  16.282  13.499   8.521 -0.1388  0.0072 -0.1547
    1W        W50713   2.205   9.792   2.213 -0.0241 -0.0098 -0.1927
    1W        W50714  13.665   4.509   8.473  0.3935 -0.1239  0.0732
    1W        W50715   2.427  22.944   6.696  0.0238  0.3511  0.0590
    1W        W50716  19.634  20.555   9.530 -0.0338  0.0881 -0.1991
    1W        W50717   0.557   1.487   1.323  0.1401  0.0134  0.4380
    1W        W50718  15.490  22.156   3.174 -0.0387 -0.2674 -0.3508
    1W        W50719  14.797  24.440   8.976 -0.1858  0.2344  0.3971
    1W        W50720  23.310  10.144   7.087 -0.4261  0.1601  0.4660
    1W        W50721  28.119  12.554   9.448  0.0105 -0.5315  0.0587
    1W        W50722  21.837  13.923   9.632 -0.1947  0.0722 -0.2509
    1W        W50723  19.583  29.150   1.577 -0.0809  0.1607  0.3429
    1W        W50724  14.478   4.899   9.526 -0.1625 -0.2855  0.1275
    1W        W50725  24.690  21.951   0.367  0.1217 -0.0416 -0.3324
    1W        W50726  19.434  19.693   2.053 -0.1837 -0.2598 -0.0134
    1W        W50727  17.865   3.083   2.396  0.0853  0.1439 -0.0991
    1W        W50728  17.724  16.562   0.562 -0.1239 -0.0119  0.2768
    1W        W50729  20.547  23.861   7.502  0.1094 -0.3538  0.1692
    1W        W50730   6.895  16.053   0.659 -0.0157  0.0076  0.2184
    1W        W50731  16.032  11.680   1.514 -0.0040  0.0830 -0.1088
    1W        W50732   4.772  21.782   8.483 -0.0495 -0.2010 -0.0580
    1W        W50733   1.752  19.413   9.511  0.0083 -0.2516 -0.3782
    1W        W50734   8.192  16.305   7.147  0.0875 -0.2879  0.3957
    1W        W50735   0.383  27.531   7.018  0.0684 -0.2948 -0.0160
    1W        W50736  20.672  15.254   1.504  0.2111 -0.1956 -0.1861
    1W        W50737  24.203  24.928   0.065 -0.1589  0.1690 -0.0679
    1W        W50738  10.926  12.203   8.129  0.1220  0.3190 -0.0985
    1W        W50739  27.616  18.824   2.267  0.1368  0.2578 -0.2397
    1W        W50740  28.943   7.561   0.810  0.0652 -0.2902 -0.4441
    1W        W50741   6.379   8.228   2.959 -0.0617 -0.0302  0.2015
    1W        W50742  12.827   0.078   1.365  0.2780 -0.0406  0.0945
    1W        W50743   8.442  16.383   9.629 -0.3013 -0.0250 -0.2200
    1W        W50744   9.510  22.994   6.586 -0.2286  0.0514  0.0781
    1W        W50745  25.452   7.796   6.997  0.1775 -0.0252 -0.0090
    1W        W50746   5.558  22.423   2.046 -0.1093 -0.0735 -0.1340
    1W        W50747  23.941   8.694   9.548 -0.2351  0.0241  0.0868
    1W        W50748   0.351   4.560   2.950 -0.3474  0.0599  0.1346
    1W        W50749   8.628  20.401   0.207  0.2557 -0.2625  0.1909
    1W        W50750  16.148   1.782   1.028 -0.3440 -0.1834 -0.4611
    1W        W50751  23.467  16.138   1.742  0.4062 -0.0268  0.0157
    1W        W50752  12.563   5.878   1.001 -0.0726 -0.1543 -0.0579
    1W        W50753   6.201  19.002   1.311  0.1873 -0.1821 -0.0807
    1W        W50754   4.331  24.976   1.467  0.0699  0.1291 -0.1824
    1W        W50755  24.755  23.274   0.018 -0.0228  0.4779 -0.3358
    1W        W50756   4.246  22.601   0.018  0.1611  0.0813 -0.0002
    1W        W50757  25.751  18.072   7.995 -0.1194 -0.0315  0.0915
    1W        W50758  26.115  10.605   8.655  0.3099  0.0972 -0.2418
    1W        W50759   3.936  15.658   8.093 -0.2051  0.0814 -0.3187
    1W        W50760  22.971   4.297   7.956  0.2336  0.5563  0.6051
    1W        W50761  19.886  18.808   2.888  0.3078  0.2571 -0.2772
    1W        W50762   4.810  28.098   0.444 -0.0037 -0.1034  0.2751
    1W        W50763  12.018   3.542   3.086  0.2060 -0.0781  0.2651
    1W        W50764  13.064  18.356   9.661  0.0254 -0.1948 -0.1298
    1W        W50765   8.152  29.265   8.092  0.0206 -0.0260 -0.0365
    1W        W50766  14.024  19.906   7.464  0.2995 -0.0953 -0.2412
    1W        W50767   7.637  23.649   1.974  0.1165 -0.1752  0.0561
    1W        W50768  20.084   0.932   2.255  0.1331  0.0950  0.1626
    1W        W50769  22.418   9.235   7.769  0.0954 -0.0574 -0.1077
    1W        W50770   7.210  15.447   7.872 -0.3148 -0.1020 -0.1366
    1W        W50771  15.102  13.507   1.683 -0.0440 -0.0370  0.1589
    1W        W50772  16.469  19.378   1.589 -0.0028  0.3011 -0.0373
    1W        W50773  23.895  28.931   0.190 -0.0178 -0.3657  0.1495
    1W        W50774   7.641   8.212   0.489  0.1224  0.1133 -0.0765
    1W        W50775  19.873   5.111   9.274 -0.1634 -0.0139 -0.2011
    1W        W50776   6.514  24.426   7.632  0.1496 -0.0190 -0.0717
    1W        W50777   4.260  15.364   9.442  0.1250 -0.0569 -0.0703
    1W        W50778  16.260  24.059   0.405  0.2728  0.0394 -0.1207
    1W        W50779   8.443  23.219   8.131  0.2498  0.0588  0.0334
    1W        W50780  14.719  27.558   0.634  0.5113  0.0963 -0.1291
    1W        W50781  20.065  22.597   1.719 -0.0894 -0.0829 -0.1105
    1W        W50782  23.934  23.180   8.659 -0.1633  0.1700 -0.0964
    1W        W50783  28.621  24.296   2.234 -0.3157  0.3300 -0.1841
    1W        W50784  10.493  28.458   1.530 -0.3471 -0.0311 -0.0364
    1W        W50785  16.445  15.377   0.943  0.1451 -0.1650  0.1513
    1W        W50786  20.086   2.585   1.148  0.0029  0.0500 -0.0789
    1W        W50787  20.738  12.697   9.162  0.0195  0.0732 -0.1493
    1W        W50788  20.889   3.490   2.880 -0.0713  0.2973  0.2546
    1W        W50789  26.626   8.342   6.989  0.0539 -0.2948 -0.1423
    1W        W50790   4.830  21.872   5.776 -0.1074 -0.3433 -0.1750
    1W        W50791   1.101  17.957   0.148  0.0472  0.0847 -0.1176
    1W        W50792  24.813  16.105   2.039  0.1424 -0.0585  0.0700
    1W        W50793  28.706  22.451   7.016  0.3342  0.0252  0.0896
    1W        W50794  11.980   5.512   1.239  0.0389  0.0191 -0.0184
    1W        W50795  15.617  13.121   0.648  0.1765 -0.0922 -0.1611
    1W        W50796  10.094  17.801   2.094  0.1108  0.1663  0.0531
    1W        W50797   1.934  25.740   2.260 -0.0689  0.1432  0.0430
    1W        W50798  16.979  25.057   0.328  0.0770 -0.1334 -0.4178
    1W        W50799   4.237  18.732   6.767  0.1146 -0.0825 -0.1967
    1W        W50800   3.376   7.418   1.298 -0.2950  0.0436  0.1652
    1W        W50801   7.371   0.615   1.454 -0.0825  0.1915  0.4540
    1W        W50802  13.326  24.492   9.486 -0.0574 -0.0584  0.0506
    1W        W50803  24.527  15.074   1.891  0.0425 -0.1229  0.2223
    1W        W50804  12.324  26.594   0.982  0.2032  0.1360 -0.0966
    1W        W50805   1.356   5.778   9.625  0.1821  0.1299  0.3168
    1W        W50806   9.246  12.065   7.603 -0.2513 -0.2949 -0.0882
    1W        W50807  23.488   4.445   0.687  0.2110 -0.3647  0.0309
    1W        W50808  19.238  17.779   9.149  0.0183  0.0884 -0.1418
    1W        W50809   0.323  11.323   1.164 -0.0770 -0.0893  0.0207
    1W        W50810  24.744   2.069   6.127 -0.1339  0.0366 -0.0638
    1W        W50811   0.782  22.332   2.859  0.2687 -0.0006 -0.0599
    1W        W50812  21.605  18.722   2.351 -0.0049 -0.0863 -0.0159
    1W        W50813  21.895  22.767   9.153  0.0231 -0.1870  0.0396
    1W        W50814  21.654  19.723   2.004  0.1215 -0.1237 -0.0683
    1W        W50815  10.191   5.569   9.412  0.0137 -0.1005  0.1017
    1W        W50816   0.823   0.803   2.438 -0.2613 -0.1496  0.0670
    1W        W50817   3.784  18.000   7.080 -0.0634 -0.1428  0.3636
    1W        W50818   2.705  20.598   8.708  0.0070 -0.1063  0.1969
    1W        W50819  14.497   6.100   0.288 -0.2033 -0.1315 -0.5578
    1W        W50820  19.952  11.202   7.513 -0.2357 -0.0545 -0.2473
    1W        W50821   9.318  17.942   7.522 -0.1420 -0.0621  0.1427
    1W        W50822   5.795  17.932   7.335  0.0405  0.2076  0.1536
    1W        W50823  18.219  12.656   2.697  0.1191 -0.2082 -0.2888
    1W        W50824  21.611  10.425   7.880  0.0200 -0.1708  0.1462
    1W        W50825  23.106  10.321   0.062 -0.1008 -0.0685 -0.0285
    1W        W50826  19.428   1.443   8.282  0.0448 -0.3696  0.2187
    1W        W50827   3.993  14.370   1.654  0.0668  0.0526  0.2847
    1W        W50828  20.849  20.883   9.091 -0.2825 -0.2264  0.1976
    1W        W50829  27.587   6.118   2.653  0.1799 -0.0057 -0.1891
    1W        W50830  19.613  13.471   0.088 -0.2789  0.2188 -0.0210
    1W        W50831  25.629  12.165   1.946 -0.2399 -0.1871 -0.3968
    1W        W50832   2.608   1.577   8.315 -0.0617  0.0060  0.2573
    1W        W50833  24.627  15.136   6.276  0.1124 -0.0160  0.1306
    1W        W50834  22.168   5.738   0.397  0.1142 -0.0141 -0.1564
    1W        W50835   6.675  14.538   7.743 -0.2238 -0.3313  0.1394
    1W        W50836  16.505   0.765   2.519  0.0119  0.3273 -0.1094
    1W        W50837  20.923  20.351   7.809  0.0268  0.2225 -0.2742
    1W        W50838  17.623  20.082   1.264  0.0522 -0.2261  0.1581
    1W        W50839  19.622   4.896   2.503 -0.1586 -0.0287  0.2265
    1W        W50840   0.356  22.048   6.931  0.3312  0.0814 -0.0487
    1W        W50841   3.952  22.521   7.926  0.2559  0.4669  0.1057
    1W        W50842   9.336   6.994   9.636 -0.1574 -0.1113 -0.1650
    1W        W50843  18.779  23.121   7.894 -0.0742  0.0675  0.1777
    1W        W50844   6.024  26.059   2.943 -0.0793 -0.0020  0.0693
    1W        W50845  10.552  17.151   7.811 -0.0085 -0.0049 -0.1537
    1W        W50846   6.692   9.880   1.073 -0.0902  0.0425 -0.3296
    1W        W50847  14.250  18.944   8.703 -0.0379 -0.1176 -0.0083
    1W        W50848   7.624  28.843   8.020 -0.0598  0.0087  0.0487
    1W        W50849   4.245  17.468   2.082  0.1583 -0.1259 -0.3001
    1W        W50850   9.216  15.369   0.142  0.1995 -0.0031  0.1330
    1W        W50851  22.663   5.679   0.129 -0.0901 -0.0834  0.0156
    1W        W50852   5.951  21.098   2.829  0.0907  0.1280  0.2137
    1W        W50853  25.294   7.184   6.273 -0.0372 -0.1637 -0.0314
    1W        W50854   4.631   4.001   0.297  0.2393 -0.1349 -0.0714
    1W        W50855   0.823  19.322   1.786 -0.2016 -0.0221 -0.2277
    1W        W50856   5.778  10.742   8.239 -0.0782 -0.1599 -0.0710
    1W        W50857  25.294  19.938   2.613 -0.1715  0.1014 -0.4216
    1W        W50858  27.218   5.484   0.843 -0.0058 -0.2511  0.0251
    1W        W50859   5.202  14.156   7.485  0.0488 -0.2488 -0.0736
    1W        W50860   1.755  13.138   7.344 -0.1769 -0.1909  0.1812
    1W        W50861  14.534  28.965   0.026  0.0149 -0.3053  0.0071
    1W        W50862   7.480   9.321   0.814  0.2260  0.2374  0.2042
    1W        W50863  18.937  24.703   1.231  0.1637 -0.2232  0.1162
    1W        W50864  27.556  20.931   5.933  0.0634 -0.1356 -0.1060
    1W        W50865   2.480   8.942   0.834 -0.1518  0.2706 -0.2348
    1W        W50866  13.014   9.314   1.940 -0.1920  0.0467  0.0887
    1W        W50867   5.082   8.180   3.123 -0.1312 -0.0336  0.2942
    1W        W50868   1.772   0.901   9.466  0.1188 -0.0268 -0.0429
    1W        W50869  16.114   0.748   2.180  0.0680 -0.1425 -0.1056
    1W        W50870  21.135   8.303   0.946 -0.0444 -0.0432  0.2735
    1W        W50871  20.006   1.233   6.592 -0.0652 -0.0226  0.2277
    1W        W50872  24.252  16.683   1.689 -0.2869 -0.1969  0.1209
    1W        W50873  19.011  16.814   9.267  0.1924 -0.1369  0.0322
    1W        W50874  15.337   3.859   8.082 -0.0099  0.0098  0.2543
    1W        W50875   6.450  29.234   9.372 -0.2008  0.1701 -0.1571
    1W        W50876  13.307  16.292   7.790 -0.1967  0.2475  0.0987
    1W        W50877  15.418  22.109   7.460  0.0306 -0.0092  0.2001
    1W        W50878  24.872  28.917   1.141  0.0539 -0.0206 -0.0445
    1W        W50879  13.092  22.908   2.289 -0.0558  0.2041 -0.0005
    1W        W50880  27.185   0.571   2.019  0.1040  0.2040 -0.3051
    1W        W50881  20.928   7.509   3.121  0.0905  0.0876  0.4086
    1W        W50882  15.745  23.812   2.154 -0.0441  0.1112  0.2418
    1W        W50883   2.019  24.445   1.671  0.1227 -0.0507  0.0816
    1W        W50884  27.432   1.732   9.109  0.0067 -0.0352 -0.2978
    1W        W50885   9.992  27.481   8.217  0.0074 -0.3194  0.1310
    1W        W50886  10.523  28.278   7.331  0.1002 -0.3386  0.0176
    1W        W50887   5.437  12.971   1.882 -0.0728 -0.1280  0.1597
    1W        W50888   4.678   1.903   0.222 -0.3442 -0.1288 -0.1677
    1W        W50889  18.170  10.958   8.562 -0.0023  0.1044  0.1810
    1W        W50890   7.747   7.654   0.582  0.1157  0.1433 -0.0096
    1W        W50891  20.656  21.895   1.348 -0.1041  0.0005  0.0422
    1W        W50892  24.176  22.375   3.073  0.1042  0.2695  0.0031
    1W        W50893  21.203   2.533   5.919  0.1057  0.1479 -0.3406
    1W        W50894   2.728  18.690   1.456 -0.0499 -0.0853 -0.4983
    1W        W50895  17.546  11.618   1.662  0.0564  0.2701  0.1512
    1W        W50896  13.655   6.767   9.156  0.0187 -0.3223  0.0196
    1W        W50897  14.119   7.950   2.489 -0.1892 -0.0707 -0.0178
    1W        W50898   8.701   0.735   0.407 -0.1707  0.2896  0.0897
    1W        W50899  25.926  23.260   6.936  0.1282  0.1657  0.0145
    1W        W50900   7.498  12.861   0.850  0.2831  0.0762  0.0338
    1W        W50901  22.516   9.125   0.827 -0.1532 -0.0267 -0.3141
    1W        W50902  20.905   6.191   0.140  0.1629  0.0609 -0.1761
    1W        W50903  21.142  15.975   8.119  0.0812  0.0811  0.0019
    1W        W50904  26.700  15.014   0.852  0.1817 -0.1928 -0.1143
    1W        W50905   8.140  27.359   8.453 -0.0401 -0.2406  0.0626
    1W        W50906  16.355  27.660   0.643  0.4900  0.1048  0.2056
    1W        W50907  24.454   9.187   1.928 -0.1576  0.2094 -0.2005
    1W        W50908   5.972  11.928   0.002 -0.1567  0.0104  0.0923
    1W        W50909  10.757   8.794   2.386  0.2487  0.2297  0.2577
    1W        W50910  12.131  13.471   8.609 -0.1440  0.3292  0.4278
    1W        W50911  27.658  26.316   6.301  0.1665 -0.3601 -0.0178
    1W        W50912   3.917  23.740   7.438  0.1084  0.0057  0.2178
    1W        W50913  28.182   7.854   8.471 -0.0600  0.3437 -0.0836
    1W        W50914   8.671   4.724   1.629  0.2700 -0.0369  0.1067
    1W        W50915  14.986  26.880   0.069  0.2835 -0.0158  0.0742
    1W        W50916  22.359   4.819   7.625  0.1112  0.0299  0.0980
    1W        W50917  22.736  16.710   9.307  0.0181  0.2190  0.2298
    1W        W50918  25.317  11.787   0.463  0.2808 -0.3200 -0.0699
    1W        W50919   4.812  23.893   7.767  0.0478 -0.1191  0.1065
    1W        W50920   4.036   1.110   7.603  0.0627 -0.0543 -0.1959
    1W        W50921   4.797   5.863   9.176  0.0034  0.0063  0.1184
    1W        W50922  16.117  24.262   9.414 -0.3974 -0.1535  0.3824
    1W        W50923   4.287   5.232   7.853  0.1989  0.0752  0.0701
    1W        W50924   4.441  28.192   8.114  0.1060 -0.1976  0.0570
    1W        W50925   8.936   3.400   8.688 -0.0266  0.0542  0.0759
    1W        W50926  13.241  19.896   0.742  0.0001 -0.0908  0.1233
    1W        W50927  15.640  23.648   6.373 -0.2665  0.1239 -0.0631
    1W        W50928   0.412  10.296   0.623 -0.3342 -0.0220  0.0542
    1W        W50929  12.024   2.509   1.649 -0.3498  0.1747  0.1905
    1W        W50930  28.736  18.782   8.555 -0.0061  0.2572 -0.3499
    1W        W50931   6.929  26.943   2.445 -0.2790  0.2285  0.2573
    1W        W50932   1.277  24.936   1.231 -0.1715  0.2118 -0.1166
    1W        W50933   4.009  19.806   7.696 -0.1422  0.3671 -0.4044
    1W        W50934  25.248  18.600   0.183 -0.2333  0.1528  0.0712
    1W        W50935   6.888   8.936   2.119 -0.1778 -0.2829  0.0266
    1W        W50936  10.803  18.794   7.275  0.3356  0.0972  0.0584
    1W        W50937  28.285  10.065   2.259 -0.2567  0.0034 -0.0505
    1W        W50938   1.732   1.101   9.027  0.0678  0.3429  0.0126
    1W        W50939  26.795   4.287   6.238 -0.3114  0.1203 -0.0974
    1W        W50940  20.366   2.879   8.560  0.2306 -0.2149 -0.1498
    1W        W50941  22.694  16.079   0.719  0.1145 -0.3497  0.3167
    1W        W50942  15.960   3.842   1.596  0.0676  0.1437 -0.1435
    1W        W50943   6.998   4.134   9.047 -0.0147  0.2584  0.4047
    1W        W50944  10.719   6.461   8.177 -0.1554 -0.0904 -0.0027
    1W        W50945   9.249  25.107   7.831 -0.1640 -0.0585  0.3023
    1W        W50946  15.211  18.648   0.314 -0.0063 -0.0071  0.0378
    1W        W50947  25.854   1.851   7.056  0.3682  0.3086  0.1800
    1W        W50948   3.819   5.269   9.271  0.0592  0.2336 -0.1216
    1W        W50949  23.432  18.609   0.940  0.1760 -0.1626 -0.2209
    1W        W50950  19.080  10.443   9.093  0.1991  0.0075 -0.0606
    1W        W50951  18.751  13.672   2.603  0.0766  0.1704 -0.3038
    1W        W50952  20.884  11.636   6.858 -0.3918  0.0436 -0.0785
    1W        W50953  13.275  18.162   0.444  0.0865 -0.0533 -0.1411
    1W        W50954   5.051  11.979   0.830  0.1078 -0.2368 -0.1626
    1W        W50955  23.135  10.384   6.059  0.0180  0.0173  0.1869
    1W        W50956   0.521  15.828   8.549 -0.1000  0.3409 -0.2874
    1W        W50957  23.413   5.592   2.203  0.2751  0.3556 -0.3100
    1W        W50958  19.898   7.130   7.614  0.0889 -0.0412  0.4079
    1W        W50959  24.472   7.603   7.509 -0.1617 -0.0454 -0.5111
    1W        W50960   1.155   2.263   1.984 -0.0198  0.1742 -0.0601
    1W        W50961   2.606  25.633   1.386 -0.1999  0.1294 -0.1613
    1W        W50962  22.499  29.060   6.519 -0.0499 -0.0636 -0.2679
    1W        W50963  23.309  23.782   1.826  0.2437 -0.0128  0.0981
    1W        W50964  21.108  24.817   1.412 -0.1709  0.0241 -0.3322
    1W        W50965   8.509  14.227   7.730 -0.1431  0.0974  0.1321
    1W        W50966  24.148  24.262   7.449  0.0508  0.1786  0.1213
    1W        W50967  20.242   9.050   7.993 -0.1370 -0.1311 -0.2321
    1W        W50968  23.757  14.913   1.464  0.2727 -0.1730  0.1846
    1W        W50969  15.535  27.845   3.849 -0.0273  0.0322 -0.0454
    1W        W50970   7.763  10.064   3.238 -0.0832 -0.1009 -0.0369
    1W        W50971  14.169  22.275   1.688 -0.0074 -0.0288  0.3908
    1W        W50972  14.767  12.084   2.029 -0.1166 -0.2218 -0.3858
    1W        W50973  17.269  28.092   3.884 -0.2397  0.1311  0.4425
    1W        W50974  20.228  24.352   2.547  0.0648 -0.0025 -0.1319
    1W        W50975  10.459  15.257   9.160  0.0512 -0.3443  0.3869
    1W        W50976  15.006  26.399   0.374  0.1212  0.0280 -0.1361
    1W        W50977  12.079   5.368   2.999  0.0912 -0.3297  0.0132
    1W        W50978  14.661   2.059   3.979  0.3332 -0.0208  0.2558
    1W        W50979  11.888  23.470   6.339  0.0431  0.1351  0.0328
    1W        W50980  26.277   2.784   0.428 -0.0097 -0.2936  0.4302
    1W        W50981  26.843   0.898   2.203 -0.2887 -0.0590 -0.0002
    1W        W50982   1.613  23.624   7.489 -0.0890  0.3064 -0.1320
    1W        W50983   5.665  18.377   1.467  0.0705 -0.1361  0.0189
    1W        W50984   5.621  16.775   8.748 -0.1530  0.0933 -0.0023
    1W        W50985  16.013  14.017   8.298 -0.1762  0.1352  0.3305
    1W        W50986   9.051   5.450   9.348  0.0390 -0.0962 -0.1170
    1W        W50987  10.786  28.975   2.728 -0.2722  0.1005 -0.2232
    1W        W50988   3.610  27.126   3.037 -0.2403  0.0374 -0.0986
    1W        W50989  29.070  17.452   6.549  0.1525  0.2173  0.0087
    1W        W50990  15.112   0.219   0.117 -0.1817 -0.0619 -0.0755
    1W        W50991  11.117  19.669   6.520 -0.0946  0.0764  0.2383
    1W        W50992  20.246  15.983   8.312 -0.1382 -0.0586  0.1137
    1W        W50993  12.027  26.882   3.014 -0.1498 -0.2155 -0.1518
    1W        W50994   5.512  17.628   1.216 -0.0730  0.1821  0.5712
    1W        W50995  23.645  27.071   0.730 -0.0353  0.4340  0.2043
    1W        W50996  12.737   9.997   0.320  0.1830  0.1850 -0.0736
    1W        W50997  18.813  23.035   7.245  0.0915  0.1810  0.0979
    1W        W50998   4.526  21.142   7.894  0.0676 -0.1060  0.1154
    1W        W50999  28.591   2.466   8.086  0.1306 -0.1758  0.1020
    1W        W51000  17.174  18.255   2.606  0.1905 -0.1867 -0.0730
    1W        W51001   0.552  17.252   7.586  0.1392  0.0617  0.0934
    1W        W51002   1.559   6.495   2.529  0.1714  0.0280  0.1051
    1W        W51003  15.836  19.783   7.798  0.1069 -0.0063  0.3146
    1W        W51004  19.989   0.483   0.480 -0.2815 -0.0364  0.2139
    1W        W51005   5.713  19.890   7.362  0.1614  0.1126 -0.2686
    1W        W51006   6.017  26.023   0.975 -0.1026  0.0676  0.1571
    1W        W51007  19.108  12.484   1.868  0.1117 -0.0588 -0.2090
    1W        W51008  16.087  16.125   1.033  0.1602  0.0472 -0.0633
    1W        W51009   5.831  12.743   6.414  0.0284  0.1600  0.0650
    1W        W51010   1.350  26.975   3.079  0.2066  0.0808 -0.1398
    1W        W51011  21.273  26.405   7.098  0.3495 -0.0886 -0.0931
    1W        W51012  16.592   9.671   9.484  0.1197 -0.0182 -0.0291
    1W        W51013  15.464  14.080   0.933  0.0258  0.0781 -0.0248
    1W        W51014  13.977   6.134   1.640  0.1388  0.0403 -0.0529
    1W        W51015  26.698  24.859   3.031 -0.2284 -0.0063  0.1022
    1W        W51016   2.116  22.499   0.021 -0.0921  0.1653  0.1920
    1W        W51017   5.782  10.220   7.143  0.1306  0.0276  0.1413
    1W        W51018  16.541  20.652   6.832  0.0985 -0.0774 -0.0442
    1W        W51019  26.343  28.870   3.236 -0.1841 -0.2090  0.3028
    1W        W51020  29.293  13.543   8.809  0.2229 -0.0134 -0.1030
    1W        W51021  28.177   4.068   1.730  0.0295  0.0043 -0.0028
    1W        W51022   9.779   4.529   9.349  0.2007  0.1703  0.1543
    1W        W51023  26.918  10.401   8.413  0.1601 -0.0402 -0.3266
    1W        W51024  28.424  26.247   3.123 -0.0060  0.2914 -0.2412
    1W        W51025   1.312   7.561   8.132 -0.2498 -0.0794 -0.3148
    1W        W51026   1.845  10.053   0.133 -0.3883 -0.2372 -0.2450
    1W        W51027  24.049  12.424   0.730  0.0487 -0.2316  0.1522
    1W        W51028  16.972  24.884   1.041  0.0573  0.0668 -0.1328
    1W        W51029   1.307   4.213   0.683 -0.1042 -0.0311  0.1452
    1W        W51030  23.688   2.079   2.518  0.0623 -0.2264  0.2192
    1W        W51031   8.790  26.792   9.090 -0.0758 -0.1370  0.1235
    1W        W51032  15.480  22.799   0.653 -0.2964 -0.3754  0.2173
    1W        W51033  12.534  28.916   2.763  0.1413  0.0324 -0.1346
    1W        W51034  12.520   4.324   3.291  0.1527 -0.0932 -0.1284
    1W        W51035  24.691  14.613   3.232 -0.0376 -0.1268 -0.0119
    1W        W51036  14.762  27.532   8.481  0.3775  0.3029  0.0133
    1W        W51037  18.800   1.790   0.041  0.2859  0.1743  0.4619
    1W        W51038  18.730  12.113   1.970  0.0808 -0.2513  0.0976
    1W        W51039   3.454   9.180   0.800 -0.0887 -0.1960  0.3603
    1W        W51040  20.727  25.550   3.417  0.1072 -0.4967  0.0016
    1W        W51041  23.736  11.676   7.155  0.2345  0.2414  0.1208
    1W        W51042  12.424  27.770   4.204 -0.0614  0.0606  0.0821
    1W        W51043  10.008  14.864   1.251 -0.0732 -0.0144 -0.2920
    1W        W51044  15.124  21.118   0.878  0.1625  0.0184  0.1180
    1W        W51045  12.668  18.954   6.515  0.1802  0.2549  0.1504
    1W        W51046  29.214   1.324   8.235  0.1105 -0.0043 -0.3342
    1W        W51047  23.540  20.917   9.552  0.1278 -0.1629 -0.0098
    1W        W51048  11.530   7.703   1.339 -0.1835  0.0049  0.0055
    1W        W51049  14.388   2.361   6.771 -0.0008 -0.0939 -0.0873
    1W        W51050  25.624  19.555   3.115  0.4297 -0.0637 -0.0164
    1W        W51051  19.593   3.414   6.217 -0.1150  0.0293 -0.2611
    1W        W51052   7.807   9.301   9.544  0.1042 -0.0395  0.3596
    1W        W51053   1.486  27.984   2.735  0.0649  0.3682 -0.0435
    1W        W51054   0.809   2.574   1.872  0.2714  0.0161  0.0947
    1W        W51055  15.933   8.420   2.871  0.0484  0.0784 -0.1103
    1W        W51056  12.735  24.197   2.265 -0.0358 -0.1147  0.2783
    1W        W51057  19.737  28.129   8.466  0.2282  0.1771 -0.1507
    1W        W51058  10.114  10.151   7.769 -0.0459 -0.3375 -0.0613
    1W        W51059  10.496   6.543   8.618  0.0468 -0.2968 -0.0887
    1W        W51060  16.430  18.208   7.720 -0.0143 -0.1073  0.0574
    1W        W51061  16.182   8.109   0.191  0.0455  0.0631  0.3628
    1W        W51062  27.655   5.266   6.665  0.1217 -0.1164 -0.2209
    1W        W51063  10.216  24.175   1.367 -0.0203  0.1436 -0.0198
    1W        W51064   9.091   3.618   2.186 -0.2446  0.1236  0.1438
    1W        W51065  22.129  17.405   9.203  0.0456  0.1014 -0.1198
    1W        W51066   2.675   5.243   1.933  0.0879 -0.2415  0.2844
    1W        W51067  13.170  11.309   8.756  0.2581  0.2950  0.1490
    1W        W51068  17.452   8.801   2.776  0.3566 -0.1498  0.0918
    1W        W51069  12.006   2.510   7.879 -0.0292 -0.1826  0.0809
    1W        W51070  25.062  10.828   6.340 -0.3863  0.0641 -0.1399
    1W        W51071   2.774   5.808   8.503 -0.0453 -0.2419 -0.1249
    1W        W51072  24.348  27.593   9.450  0.1519 -0.0489  0.1205
    1W        W51073  26.964  10.327   2.809  0.0412  0.3027  0.0063
    1W        W51074  15.174  28.958   2.982  0.2346  0.0276  0.1827
    1W        W51075  28.243   7.478   0.040 -0.0297 -0.0451 -0.0660
    1W        W51076  11.929   1.458   2.117 -0.0319 -0.0117 -0.3943
    1W        W51077  24.835   7.147   0.556 -0.3612  0.0208 -0.0278
    1W        W51078  16.778  18.957   0.799 -0.4433 -0.3520  0.2182
    1W        W51079  23.789  11.672   2.586  0.1329 -0.4858 -0.1888
    1W        W51080  24.425  16.060   7.381  0.0446 -0.1332  0.0426
    1W        W51081   5.991  11.841   9.121 -0.2556  0.0182 -0.2244
    1W        W51082  13.661   5.820   1.384  0.0391  0.1173 -0.2643
    1W        W51083  17.055   0.300   0.211  0.1785  0.1131  0.1196
    1W        W51084  16.161  13.425   0.835 -0.1042 -0.2445  0.1674
    1W        W51085  25.873  23.662   2.102  0.1196  0.2748  0.2177
    1W        W51086   8.719  10.989   1.906  0.1161 -0.2954  0.1408
    1W        W51087  22.543  21.096   8.618 -0.0243 -0.0105  0.2875
    1W        W51088   9.816  21.351   7.018  0.1370  0.0580  0.1823
    1W        W51089  17.122   6.835   9.000 -0.0505 -0.0410  0.2933
    1W        W51090   7.973   8.513   7.801  0.0918 -0.2384  0.0497
    1W        W51091   7.377  21.530   0.560  0.0687  0.1175  0.1722
    1W        W51092   4.638   9.294   2.245  0.2966  0.1000  0.0604
    1W        W51093  15.107   2.933   8.517  0.0580 -0.0232 -0.0885
    1W        W51094  26.131   6.065   6.227  0.0276 -0.2046 -0.1090
    1W        W51095   7.320   0.415   0.421  0.0414 -0.0958 -0.3100
    1W        W51096   6.920   8.733   0.714  0.4644  0.2589 -0.1773
    1W        W51097  28.689  14.317   1.428  0.0233  0.0465 -0.0389
    1W        W51098  14.975   5.499   0.042  0.1296 -0.0799 -0.2690
    1W        W51099   1.891   6.227   1.274  0.0498  0.0273  0.1505
    1W        W51100  27.619  17.856   9.176 -0.3297  0.2397  0.3497
    1W        W51101  21.409   3.573   1.721 -0.1204  0.0273  0.1087
    1W        W51102   9.080  11.685   1.102 -0.2541 -0.2253  0.0277
    1W        W51103   2.578  20.672   7.692 -0.0334 -0.0113  0.3432
    1W        W51104  14.859   1.065   9.429  0.0127 -0.1349  0.3652
    1W        W51105   2.451  13.834   1.934 -0.2641 -0.1754  0.0156
    1W        W51106  25.552   6.711   9.225 -0.2540  0.1656 -0.1608
    1W        W51107  22.433  16.164   1.651  0.1855  0.0330  0.0783
    1W        W51108  23.158   1.664   8.707 -0.1826  0.2418  0.1521
    1W        W51109  28.359   8.837   7.532  0.1690 -0.3194 -0.2201
    1W        W51110  14.969  25.128   3.047 -0.0620 -0.7096  0.2164
    1W        W51111  25.838  25.465   2.481 -0.3997 -0.0120  0.0212
    1W        W51112   3.919  24.003   9.385  0.0381 -0.1957 -0.1437
    1W        W51113   8.912  13.513   7.934 -0.3067  0.0319  0.0793
    1W        W51114  22.639  13.997   7.036  0.1151  0.1889 -0.2540
    1W        W51115  27.790  12.744   0.217  0.0098  0.0234  0.0342
    1W        W51116  15.674  16.173   8.022  0.0626  0.1119 -0.2003
    1W        W51117   7.192  11.962   0.132  0.4742 -0.2900  0.2191
    1W        W51118  12.994  14.147   1.416  0.0703  0.0583 -0.1331
    1W        W51119  26.721   9.900   8.389  0.1332  0.0818  0.1646
    1W        W51120   0.415   5.003   6.218 -0.2469  0.2245  0.0094
    1W        W51121  16.042  25.868   1.992  0.2286 -0.2630  0.0641
    1W        W51122  14.312  10.403   0.808  0.0675 -0.0378  0.0017
    1W        W51123  25.445  14.221   7.851  0.2532  0.1226 -0.3643
    1W        W51124  15.493   7.162   0.899 -0.0898  0.0465 -0.0796
    1W        W51125  27.356  23.145   8.866  0.1130 -0.1131 -0.0316
    1W        W51126  19.315   8.085   2.412  0.2038  0.1035  0.3120
    1W        W51127   6.355   0.243   9.026 -0.0478  0.2749 -0.3624
    1W        W51128   1.958   5.535   8.287 -0.1834  0.1417 -0.0763
    1W        W51129  16.624  23.276   8.842 -0.0811  0.2167  0.1701
    1W        W51130  12.478   0.761   8.535 -0.1499 -0.2340 -0.0586
    1W        W51131  16.508  19.080   0.405  0.0643  0.1437 -0.0908
    1W        W51132  14.170  13.655   1.579  0.1600 -0.0177 -0.0385
    1W        W51133   6.265  16.449   0.219 -0.2130 -0.0425 -0.1406
    1W        W51134   7.797  14.875   7.004 -0.0307  0.3056 -0.1316
    1W        W51135  22.306   5.711   1.323  0.0664 -0.1896 -0.1100
    1W        W51136  21.059  10.235   2.618 -0.0106  0.0655  0.3646
    1W        W51137  26.428   2.317   0.279 -0.1300  0.1008 -0.4416
    1W        W51138  21.790   5.477   2.046  0.0079 -0.1875  0.2898
    1W        W51139  26.828  15.539   0.199  0.2653  0.4849  0.3932
    1W        W51140   9.938   0.251   2.768  0.2037  0.0046  0.0604
    1W        W51141  20.739  14.167   0.094  0.0628  0.0441 -0.0515
    1W        W51142   0.563   0.521   2.692  0.0388 -0.3998  0.0560
    1W        W51143  20.666  19.492   0.373 -0.0674 -0.0563  0.0611
    1W        W51144  17.331  26.938   7.084 -0.2126  0.0556 -0.0875
    1W        W51145  29.205  21.118   2.697 -0.0757 -0.0482  0.2458
    1W        W51146  23.884  29.163   8.904  0.2002  0.0553 -0.1496
    1W        W51147   2.475   7.742   9.283  0.0743 -0.0609  0.2954
    1W        W51148  23.616  16.365   7.900  0.2820 -0.0539  0.1479
    1W        W51149  22.345   2.982   1.661  0.0596  0.1903 -0.1852
    1W        W51150   0.194  10.258   7.510  0.2209 -0.0948  0.0490
    1W        W51151   6.993  26.633   8.583  0.1544  0.2732  0.0582
    1W        W51152  22.826  23.748   8.719 -0.2911 -0.0309 -0.2253
    1W        W51153  17.459   8.673   0.061  0.0566  0.1239 -0.2196
    1W        W51154  10.145   6.056   2.447 -0.0134  0.1483  0.0559
    1W        W51155  24.912  17.776   8.330  0.0854  0.1103  0.2793
    1W        W51156   5.411   5.861   7.154 -0.1093  0.3363  0.2725
    1W        W51157   4.274  14.014   0.093 -0.1297  0.1140 -0.0084
    1W        W51158  16.823  13.552   0.686  0.1934 -0.2061 -0.0672
    1W        W51159  23.117  17.572   1.848  0.0184 -0.0102 -0.2764
    1W        W51160  18.882  14.380   1.637  0.0110  0.1975  0.1756
    1W        W51161   0.198  18.855   7.360  0.1131 -0.0589 -0.1533
    1W        W51162  29.140  20.038   0.640 -0.0104  0.1529 -0.0547
    1W        W51163  22.012  26.787   7.165  0.2305 -0.1482 -0.1616
    1W        W51164   2.463   0.403   9.308 -0.1737  0.1816 -0.3089
    1W        W51165  17.691  24.899   8.029 -0.0128  0.1488  0.1498
    1W        W51166   9.132  19.632   0.164  0.0610 -0.0001  0.0853
    1W        W51167  11.269  25.837   1.553 -0.1560  0.1421  0.0098
    1W        W51168  12.695   8.891   2.068 -0.4190  0.1289  0.2274
    1W        W51169  16.333  20.406   7.608 -0.0934 -0.1939  0.3307
    1W        W51170   4.700   4.120   9.506  0.1368 -0.0377  0.1779
    1W        W51171  15.933   9.136   8.384 -0.2009  0.2363 -0.2950
    1W        W51172  10.930   0.862   1.974  0.0376 -0.0366 -0.0547
    1W        W51173  23.700  11.080   8.398  0.5356  0.4168  0.2421
    1W        W51174  22.410   5.914   0.879 -0.0287  0.0145  0.1475
    1W        W51175  22.479   9.916   8.693  0.2557 -0.0444 -0.0167
    1W        W51176  27.985   1.736   6.483  0.0336 -0.0613  0.0646
    1W        W51177  14.925  20.904   6.833  0.0054 -0.0370  0.0532
    1W        W51178   9.473   2.236   1.293  0.0495 -0.0642 -0.2842
    1W        W51179  28.819   7.310   5.942  0.0104  0.2321  0.2005
    1W        W51180   5.199  18.525   8.912  0.2390 -0.2161 -0.1844
    1W        W51181  15.976   8.324   1.850  0.1604  0.1947 -0.0190
    1W        W51182  14.153  22.245   1.018  0.4396 -0.3378 -0.3223
    1W        W51183  12.713  15.101   8.715 -0.1441  0.2397  0.1732
    1W        W51184  28.051   2.240   2.081 -0.5355  0.0646 -0.0886
    1W        W51185  24.576   3.205   6.001  0.2334  0.0511 -0.0576
    1W        W51186   8.412  10.654   9.334 -0.0028  0.2383  0.0310
    1W        W51187   4.923  27.168   8.791  0.2858 -0.1758  0.2510
    1W        W51188  14.602   3.702   0.423 -0.1046 -0.0102 -0.2424
    1W        W51189   0.374   6.427   0.515  0.0457  0.0865  0.3300
    1W        W51190  23.824  24.591   0.758 -0.1582  0.0806  0.3249
    1W        W51191  13.597   2.583   8.585  0.1975 -0.0777 -0.2829
    1W        W51192  15.107  22.505   8.909 -0.2896  0.0278  0.1750
    1W        W51193  16.716  26.704   2.947  0.2871  0.2303 -0.0984
    1W        W51194  21.076  23.900   7.478 -0.2200  0.3268  0.1579
    1W        W51195   8.902  18.244   1.807  0.2075 -0.0735  0.0171
    1W        W51196  27.709  18.259   6.458 -0.2206 -0.2602  0.0994
    1W        W51197  24.206  19.758   7.704  0.1435 -0.0676  0.2507
    1W        W51198   2.125   4.718   0.920  0.4269  0.0123 -0.1930
    1W        W51199  27.521   9.168   1.982 -0.0563 -0.0261  0.1940
    1W        W51200   8.594   4.640   0.263  0.0665  0.3218 -0.0997
    1W        W51201  20.355  17.562   0.403  0.4232 -0.4625  0.0493
    1W        W51202   1.301   0.361   7.380 -0.0772 -0.0697  0.1532
    1W        W51203  14.997   5.221   9.219 -0.0257 -0.0291  0.0285
    1W        W51204   1.706  17.071   0.055 -0.2239  0.0143 -0.0833
    1W        W51205  28.163  14.199   9.372  0.1404 -0.0113  0.1148
    1W        W51206  22.228  20.229   2.678 -0.0295 -0.0254  0.0718
    1W        W51207   1.873   0.794   6.225 -0.2360 -0.0483 -0.2675
    1W        W51208  10.972  15.620   8.122  0.3242 -0.1370 -0.1290
    1W        W51209  17.457  15.297   8.316 -0.2993 -0.1120 -0.2610
    1W        W51210  11.839   4.906   9.164 -0.0846  0.2727  0.0978
    1W        W51211  28.505   1.566   8.260 -0.1925 -0.1299  0.2859
    1W        W51212   2.154  19.375   1.956  0.0196  0.3218  0.0230
    1W        W51213  18.558   8.671   2.448  0.0215  0.1406 -0.1320
    1W        W51214  20.635  24.335   0.032  0.0476  0.2419 -0.2497
    1W        W51215  23.553  15.642   7.203  0.0894 -0.1984 -0.0089
    1W        W51216  20.034   9.606   2.042  0.1930  0.0258  0.0062
    1W        W51217   0.049  20.590   7.207 -0.0556  0.1241 -0.0579
    1W        W51218   1.005  24.290   7.467 -0.4001  0.1803  0.0036
    1W        W51219  28.570  14.735   7.360 -0.4202 -0.0669 -0.0600
    1W        W51220  18.204  24.429   1.438  0.1085 -0.0807 -0.1896
    1W        W51221  27.043  23.882   9.079  0.1806  0.0715  0.1009
    1W        W51222  14.572   7.593   8.180  0.0577 -0.2024  0.1837
    1W        W51223  24.654   2.806   3.318  0.0988 -0.2246 -0.2066
    1W        W51224  19.471  16.206   7.746  0.1790 -0.0132  0.0435
    1W        W51225   0.054   8.776   1.148  0.3966  0.3147  0.3550
    1W        W51226  18.041  22.297   6.233  0.1632 -0.2743  0.0287
    1W        W51227   2.065   1.983   1.806 -0.1095 -0.2211 -0.0245
    1W        W51228   5.577  25.619   9.149 -0.1111 -0.1075  0.2000
    1W        W51229  25.570  26.713   8.332 -0.4154  0.1737 -0.2813
    1W        W51230  14.482  29.093   4.583 -0.1364 -0.1487  0.2485
    1W        W51231  13.287   3.075   8.553  0.2644  0.0791 -0.0789
    1W        W51232  25.150  15.749   1.466 -0.3031  0.0426  0.3843
    1W        W51233  26.482  16.277   1.309  0.1226  0.0276 -0.1270
    1W        W51234  27.053   4.467   8.595  0.0151  0.0457  0.1424
    1W        W51235  23.010   8.222   1.079 -0.3909 -0.1232 -0.1857
    1W        W51236  24.270   2.493   0.971  0.3106 -0.0543 -0.2878
    1W        W51237  17.740  23.763   9.383 -0.4005  0.1170  0.1476
    1W        W51238  10.499  17.770   8.521 -0.3383 -0.0442 -0.1516
    1W        W51239  19.860  25.494   0.121  0.3572 -0.0909  0.0509
    1W        W51240  25.178  16.902   7.270 -0.0303  0.0959  0.1948
    1W        W51241  14.548  12.528   7.914 -0.0371  0.2459  0.2208
    1W        W51242   8.024  26.964   8.102  0.1897  0.1042 -0.3959
    1W        W51243   2.630   5.732   7.002  0.1084  0.2523 -0.2209
    1W        W51244   6.634  14.156   1.117  0.0835  0.2306  0.0312
    1W        W51245   4.894  14.844   2.607 -0.0540  0.0123  0.0568
    1W        W51246   6.552  17.342   6.271 -0.1532  0.0583  0.2152
    1W        W51247  27.793  10.228   2.258  0.1454  0.1758  0.0334
    1W        W51248  10.034   9.786   0.140 -0.0532 -0.1730  0.1014
    1W        W51249  25.665  17.135   0.541 -0.1123 -0.2446  0.1957
    1W        W51250  22.309  10.904   7.069  0.1624 -0.1934 -0.3164
    1W        W51251  14.507   6.564   0.078  0.3234 -0.0039 -0.0665
    1W        W51252  21.556  22.969   2.024  0.0403 -0.1135  0.0168
    1W        W51253   6.773  23.339   5.867  0.1596 -0.0105  0.1951
    1W        W51254  18.941  25.050   1.714  0.0308 -0.2124 -0.2554
    1W        W51255  26.273   6.348   8.880 -0.4317  0.1625 -0.1182
    1W        W51256  19.773  20.931   2.299  0.0272  0.0468  0.2142
    1W        W51257  21.334   0.357   9.353 -0.5427  0.0624 -0.1616
    1W        W51258  11.524  12.334   7.394 -0.2325 -0.1536  0.0279
    1W        W51259  20.357   1.770   9.441  0.0499  0.0401  0.1172
    1W        W51260  11.510   5.237   1.163  0.2276  0.3270  0.1169
    1W        W51261  15.205   7.727   1.588 -0.0137  0.0594 -0.1101
    1W        W51262  10.285  28.573   3.610  0.3936 -0.0011 -0.2530
    1W        W51263  28.589   6.640   5.628  0.2375  0.0947 -0.0431
    1W        W51264  28.227   0.874   0.279  0.2074 -0.5632 -0.1055
    1W        W51265   1.957  28.952   3.694 -0.1388  0.0801 -0.0598
    1W        W51266   8.540   3.410   8.308  0.3138 -0.1555  0.1049
    1W        W51267  12.219  13.125   2.205  0.0995  0.1840 -0.0603
    1W        W51268  16.820  10.561   8.126  0.1586 -0.1264  0.3160
    1W        W51269   8.757   3.916   8.048  0.3236  0.0751 -0.0189
    1W        W51270  12.511  15.942   2.119  0.2991 -0.2426 -0.3444
    1W        W51271   9.406  20.895   2.454 -0.2036 -0.0876 -0.0750
    1W        W51272  19.497  10.936   2.614 -0.2759  0.2715  0.0720
    1W        W51273  10.020  25.153   0.335  0.1712 -0.2516 -0.1276
    1W        W51274  23.115  22.306   8.851  0.1762 -0.0949 -0.1702
    1W        W51275  12.956  28.964   1.265  0.3370 -0.3163 -0.2634
    1W        W51276   2.454   4.229   8.592 -0.1088 -0.4106 -0.1529
    1W        W51277  11.468  14.951   8.510  0.2140  0.3903  0.1552
    1W        W51278   2.158  17.297   6.538 -0.0147  0.0486  0.0883
    1W        W51279   0.832  24.892   7.648 -0.2003 -0.0991  0.0579
    1W        W51280   6.266  12.993   6.179  0.3415  0.3111 -0.0455
    1W        W51281  16.052   3.389   0.340  0.0486 -0.1496 -0.0621
    1W        W51282  11.506   3.836   8.571  0.0382 -0.0050  0.1249
    1W        W51283  15.165   1.602   0.852 -0.0528  0.0872 -0.1936
    1W        W51284  11.509  12.456   6.923 -0.1232  0.0015  0.2772
    1W        W51285  27.273   6.499   1.774 -0.0604 -0.0055 -0.2509
    1W        W51286  27.611   2.588   0.006 -0.1617  0.1754 -0.0139
    1W        W51287  20.628  28.902   2.816 -0.0156 -0.0788 -0.2882
    1W        W51288  21.599   7.826   8.182 -0.0323 -0.0205 -0.1231
    1W        W51289   5.138   3.299   7.314  0.0743  0.1518 -0.4958
    1W        W51290  15.134  10.428   0.339  0.0594 -0.2362 -0.1465
    1W        W51291  28.169  23.090   6.508  0.3365 -0.2870  0.3295
    1W        W51292  14.469   9.545   1.572 -0.3682  0.0188  0.2403
    1W        W51293   8.952  26.567   8.281 -0.2677  0.0155 -0.1702
    1W        W51294  24.543   1.683   7.606 -0.2203 -0.0431 -0.1356
    1W        W51295   3.600  14.644   1.392 -0.3313  0.2135 -0.4522
    1W        W51296   6.883  21.402   1.295  0.0675 -0.2619 -0.0765
    1W        W51297  12.481  21.252   2.434 -0.0727  0.0891 -0.3856
    1W        W51298  12.010   6.679   0.100  0.3187  0.2361 -0.3359
    1W        W51299  10.808  25.997   7.221 -0.0689  0.0024  0.3710
    1W        W51300  20.777  17.657   8.077 -0.0578  0.1889  0.0770
    1W        W51301  13.575  24.933   2.032 -0.2951 -0.2452  0.0808
    1W        W51302  27.489   7.464   7.330 -0.1864  0.1458 -0.0017
    1W        W51303   5.447  17.798   7.678  0.1658 -0.0703  0.2014
    1W        W51304  24.639  25.918   2.382 -0.0158  0.2048 -0.1849
    1W        W51305  27.975   9.512   5.904  0.0786  0.0059 -0.0029
    1W        W51306   5.003  13.327   8.026  0.1087  0.1892  0.0173
    1W        W51307   1.886  28.537   0.918 -0.1640 -0.0716 -0.1272
    1W        W51308  17.625  27.253   2.051 -0.5660  0.2568  0.2744
    1W        W51309   6.241  22.781   0.064  0.0333  0.0998  0.0458
    1W        W51310  22.486  10.596   2.351  0.0243  0.2478 -0.1174
    1W        W51311  18.506  12.116   8.019  0.0366  0.1195 -0.1095
    1W        W51312  25.183   5.713   2.424 -0.0545 -0.0197  0.1887
    1W        W51313  23.646  11.541   8.133 -0.1181  0.0511  0.1260
    1W        W51314  17.666  18.087   1.827  0.2515 -0.1288 -0.0114
    1W        W51315  14.234   3.072   2.412 -0.2257  0.0029 -0.0239
    1W        W51316  12.613  24.632   7.565 -0.0270 -0.0416  0.1578
    1W        W51317  24.369  29.281   8.646 -0.1596 -0.0231 -0.1641
    1W        W51318  16.212   5.389   1.480 -0.0377 -0.0841  0.0137
    1W        W51319   3.970  17.086   8.870 -0.2425  0.3066  0.1317
    1W        W51320   2.136  27.260   8.974 -0.3081  0.2542 -0.0411
    1W        W51321  19.713  22.722   2.289 -0.0525 -0.1738 -0.0833
    1W        W51322  28.875  29.221   1.205 -0.1668 -0.0800 -0.0164
    1W        W51323  22.568  11.298   8.946  0.0369 -0.1587  0.0211
    1W        W51324  10.368   1.063   9.612 -0.1898 -0.0319 -0.1567
    1W        W51325   3.103   2.483   1.823 -0.0306 -0.2549 -0.0327
    1W        W51326  22.385   8.265   0.402 -0.2409 -0.2145 -0.0458
    1W        W51327  16.965  28.480   2.128 -0.0845  0.1976 -0.1045
    1W        W51328   8.073   7.984   2.686  0.2814  0.0050 -0.0640
    1W        W51329  12.032  11.649   8.044  0.0447 -0.1101 -0.1062
    1W        W51330   3.750  17.641   1.434 -0.0303 -0.0962  0.0344
    1W        W51331   9.778  16.501   0.439  0.2082 -0.0548  0.0824
    1W        W51332   9.647  25.956   7.968 -0.2420  0.1466  0.3277
    1W        W51333   4.112  17.925   7.452  0.1472 -0.1419 -0.0543
    1W        W51334   3.828  17.351   0.984 -0.2976  0.0129  0.0449
    1W        W51335   5.520  20.438   8.992 -0.0251 -0.0633 -0.1419
    1W        W51336  15.969   6.488   1.900 -0.1194  0.1895 -0.0457
    1W        W51337  21.638   2.858   2.282 -0.0278  0.1896  0.0079
    1W        W51338  14.596  26.077   0.266  0.0924 -0.0755 -0.3101
    1W        W51339   4.628  14.713   2.104  0.1632  0.1126  0.1304
    1W        W51340  15.866  10.967   7.206 -0.2173 -0.2514 -0.1487
    1W        W51341  18.750   3.789   0.482  0.1355  0.4274 -0.1537
    1W        W51342   5.251  18.421   0.610 -0.0485  0.2199  0.1597
    1W        W51343   2.410  27.388   1.773  0.0003 -0.3752 -0.1261
    1W        W51344   3.298  19.291   0.559 -0.1225  0.3044  0.1131
    1W        W51345  20.024  12.663   9.300 -0.0380  0.1500  0.1492
    1W        W51346   6.210  19.152   6.326  0.1675  0.2937  0.2661
    1W        W51347  17.032  18.643   8.500  0.1220  0.1572 -0.0326
    1W        W51348   2.551   1.390   9.522 -0.1940 -0.0283  0.3571
    1W        W51349   5.975  19.643   9.597 -0.1516  0.2793  0.3017
    1W        W51350   6.032  28.501   3.022 -0.0623 -0.0231  0.3307
    1W        W51351  17.913  24.161   0.693  0.0819 -0.3116 -0.1030
    1W        W51352   2.581  24.083   7.785 -0.0770 -0.5673 -0.2343
    1W        W51353  28.155   4.763   0.046  0.0073 -0.1293  0.1083
    1W        W51354  10.230  17.522   9.107  0.0590 -0.1171  0.0573
    1W        W51355  16.124   0.447   0.261 -0.1564 -0.0564 -0.1402
    1W        W51356  12.187  17.840   8.035 -0.1057 -0.2021 -0.0438
    1W        W51357  22.347   0.165   1.734 -0.2347  0.0539 -0.1251
    1W        W51358  16.140  10.471   0.094 -0.0861  0.0255 -0.2086
    1W        W51359  14.008   6.820   3.215 -0.1187  0.1655 -0.0739
    1W        W51360   3.862   6.372   9.522 -0.1908  0.0424 -0.1955
    1W        W51361  27.401   5.070   7.019  0.3750 -0.0228 -0.0956
    1W        W51362   0.550  13.515   1.632  0.0547 -0.2396  0.3072
    1W        W51363   2.407  28.650   0.440 -0.0945  0.2414  0.1791
    1W        W51364   6.549  23.273   1.626  0.2705  0.1604 -0.1073
    1W        W51365  15.923   0.194   2.166  0.0505 -0.5323  0.0519
    1W        W51366  23.310   8.300   6.795  0.0229  0.1223 -0.1396
    1W        W51367  16.266  18.518   8.457 -0.2110  0.2844 -0.0809
    1W        W51368  25.269   4.399   7.791  0.0214  0.0050 -0.1304
    1W        W51369  10.227  14.878   1.701  0.0308  0.1023  0.0255
    1W        W51370  23.905  22.885   2.938  0.0685 -0.0027 -0.1761
    1W        W51371   3.513   6.899   8.944  0.2774 -0.0298 -0.0217
    1W        W51372  25.534   5.408   7.991  0.0264 -0.2646 -0.1336
    1W        W51373  23.327   7.939   1.341 -0.0164  0.1967  0.1139
    1W        W51374   5.130  17.421   7.664 -0.2507  0.1779  0.0309
    1W        W51375   2.644   8.507   8.252 -0.0437 -0.1703 -0.0352
    1W        W51376  13.169  15.278   0.767  0.0712 -0.0933  0.0729
    1W        W51377   1.723   2.703   1.257 -0.0720 -0.2606 -0.0344
    1W        W51378   7.160  20.605   0.618 -0.0803  0.3141 -0.1941
    1W        W51379  23.309  19.965   7.281  0.0694 -0.1367  0.0689
    1W        W51380  21.588  11.068   8.653 -0.1868  0.1833 -0.3459
    1W        W51381  21.846   3.066   1.823  0.3569 -0.2981  0.4585
    1W        W51382  23.287   0.078   2.019  0.0077 -0.0201  0.0097
    1W        W51383  10.206   9.422   8.206 -0.0650 -0.2721 -0.1327
    1W        W51384   7.693   7.413   7.848 -0.1944 -0.2053 -0.1623
    1W        W51385  11.907   5.487   8.608  0.2486  0.1461 -0.0249
    1W        W51386   2.952   9.468   5.721 -0.0442  0.0148  0.0404
    1W        W51387   7.691  20.480   9.062  0.1811 -0.1541 -0.0079
    1W        W51388   2.988   3.757   7.353 -0.2816 -0.0606 -0.1534
    1W        W51389   1.761  13.179   6.852 -0.0576 -0.2917  0.0831
    1W        W51390  19.499   5.633   0.643 -0.2562 -0.1395  0.2996
    1W        W51391  12.645  13.157   7.124 -0.2724  0.0561 -0.1648
    1W        W51392  12.836   3.336   0.344 -0.1381 -0.0194 -0.0297
    1W        W51393  10.361   0.485   7.815 -0.0201  0.1051 -0.2364
    1W        W51394  18.490  25.345   0.665  0.2042 -0.1317  0.2886
    1W        W51395  26.430   1.656   2.033 -0.1229 -0.3477  0.0268
    1W        W51396   0.820   7.097   0.979  0.3660  0.1350 -0.0212
    1W        W51397   8.250   8.079   8.054 -0.0317 -0.0846 -0.0508
    1W        W51398  28.363  18.427   9.624  0.0404 -0.0877  0.0265
    1W        W51399   1.149   7.386   1.614  0.0701 -0.0608  0.2402
    1W        W51400  27.096  10.967   8.514  0.2458  0.2637  0.0437
    1W        W51401   5.309  17.404   6.096  0.1663 -0.0525  0.2506
    1W        W51402  14.718  15.366   1.162 -0.0483 -0.2814  0.0567
    1W        W51403   7.533  24.810   1.911 -0.1619 -0.1426 -0.1486
    1W        W51404  26.248  21.076   1.808 -0.0643 -0.0150  0.0343
    1W        W51405   5.860   1.648   2.493 -0.0894 -0.0061  0.0079
    1W        W51406  11.907   5.390   0.770  0.1184 -0.4208 -0.0505
    1W        W51407   4.230  18.935   8.779 -0.3016  0.1706  0.1470
    1W        W51408  25.490  12.943   1.610  0.0194  0.1043  0.1598
    1W        W51409   4.519  20.877   8.782 -0.0716  0.1711  0.1171
    1W        W51410  21.806  27.227   7.299  0.1436  0.0047  0.0163
    1W        W51411  12.040  15.222   7.957 -0.0848  0.2596  0.2280
    1W        W51412   8.334  26.275   1.398  0.1561 -0.1513  0.3271
    1W        W51413  17.383   1.146   2.141 -0.0773  0.2996  0.0247
    1W        W51414   5.803   9.576   0.422  0.0771  0.2553 -0.0483
    1W        W51415  19.981   1.320   2.556  0.0522  0.0286 -0.1094
    1W        W51416  12.219   8.237   8.769  0.2486  0.0685 -0.1250
    1W        W51417   8.546  13.460   8.331 -0.2469  0.0016  0.1709
    1W        W51418  13.128   2.927   2.913 -0.2151 -0.0337  0.1904
    1W        W51419  29.244  14.260   1.619  0.1839 -0.1499 -0.0784
    1W        W51420  23.953   3.088   0.066 -0.0306 -0.1733  0.0262
    1W        W51421   5.121  13.525   7.534 -0.0803 -0.0287  0.0489
    1W        W51422  10.416   6.282   1.858 -0.0413  0.1757  0.1416
    1W        W51423  20.369   5.723   8.010  0.0734 -0.2231  0.1456
    1W        W51424  25.719  19.798   1.262  0.0813  0.0297  0.1660
    1W        W51425   5.575   9.230   8.583  0.1457  0.0096 -0.2051
    1W        W51426   1.567  10.757   9.664  0.1019  0.1224 -0.0824
    1W        W51427  27.338   7.289   6.887  0.0188 -0.1721  0.0181
    1W        W51428   3.523  23.650   1.103  0.1776  0.0579 -0.0226
    1W        W51429   9.822  18.207   9.375 -0.4206 -0.1152  0.0177
    1W        W51430   3.105   7.729   7.343 -0.1877  0.1608 -0.2299
    1W        W51431  10.892  15.792   7.606 -0.1750  0.0553 -0.2757
    1W        W51432  19.374   7.634   1.202 -0.0844  0.0355  0.1058
    1W        W51433  19.657  26.423   9.188 -0.0903  0.3159  0.0373
    1W        W51434   3.592  25.901   0.520  0.2716  0.1781 -0.0804
    1W        W51435  21.558   2.100   1.950 -0.1511 -0.1129  0.0820
    1W        W51436  25.565  19.307   8.407 -0.1041  0.3267  0.3718
    1W        W51437   7.611   8.973   1.977 -0.0526  0.0189  0.0505
    1W        W51438  11.658   2.890   3.957  0.3734 -0.0050  0.3059
    1W        W51439  11.304   7.812   0.859 -0.2158  0.1169  0.3447
    1W        W51440  16.020  26.120   3.505  0.1073  0.0090 -0.0448
    1W        W51441   1.256  16.637   9.041 -0.1431 -0.2891  0.1770
    1W        W51442  20.290  11.896   2.983 -0.0687  0.0123  0.0208
    1W        W51443  17.079   0.282   7.697 -0.4946 -0.1504  0.0354
    1W        W51444  26.301   2.416   0.772 -0.1037  0.3111 -0.1647
    1W        W51445  13.175  22.478   8.214  0.0739  0.0178 -0.0869
    1W        W51446  22.821   1.072   1.739 -0.0000  0.0661  0.1327
    1W        W51447  22.300  13.174   8.185  0.1425 -0.1014  0.0640
    1W        W51448  20.773  28.874   7.787 -0.3904  0.0318 -0.2736
    1W        W51449   7.146   7.184   1.362 -0.1858  0.0272  0.1842
    1W        W51450  14.159  20.974   8.568  0.3011  0.3334  0.0603
    1W        W51451   6.203  12.012   7.479 -0.1748 -0.1107 -0.0053
    1W        W51452  20.117  13.584   7.683  0.3679  0.1525 -0.0336
    1W        W51453  23.955  13.943   2.212 -0.1070  0.2083 -0.0169
    1W        W51454  28.172  14.408   5.673 -0.2157  0.3466 -0.1412
    1W        W51455   9.220   8.210   2.111 -0.1484  0.0643 -0.1595
    1W        W51456  16.743  18.539   2.602 -0.1157  0.3153 -0.0110
    1W        W51457  28.647  15.706   7.614  0.0761  0.1695  0.0159
    1W        W51458  22.692   3.429   7.325 -0.1467  0.0456 -0.0723
    1W        W51459  11.959  12.211   8.747 -0.1772 -0.0657 -0.0730
    1W        W51460  14.537  26.057   8.453 -0.1148  0.2469 -0.0834
    1W        W51461  21.602  21.192   0.408 -0.1572 -0.1980 -0.0915
    1W        W51462   4.903  14.652   8.327  0.0835  0.1889 -0.0165
    1W        W51463   1.898  17.018   6.012  0.0672  0.3225  0.4248
    1W        W51464  21.893  21.753   9.178 -0.0676  0.0919  0.0058
    1W        W51465  17.068   3.203   0.745  0.3107  0.0931 -0.2148
    1W        W51466  11.424  13.899   1.377  0.0908 -0.1673 -0.0511
    1W        W51467  11.769   7.720   8.965 -0.2661 -0.1446  0.0775
    1W        W51468  29.040   8.092   8.387 -0.2901  0.2785 -0.1439
    1W        W51469  23.996   6.932   8.204  0.1872  0.2328 -0.1324
    1W        W51470  27.419  18.989   6.978  0.1531 -0.1255  0.0276
    1W        W51471  10.309   3.264   2.535 -0.0128  0.1004 -0.1077
    1W        W51472  26.105   5.380   6.782 -0.0054 -0.0184 -0.3262
    1W        W51473  20.081   7.434   8.572 -0.0405 -0.1732 -0.0543
    1W        W51474  28.568  22.723   8.367  0.1633 -0.1915 -0.2329
    1W        W51475   6.791   0.080   1.878  0.1014 -0.0451 -0.3397
    1W        W51476  10.033   6.911   2.211  0.1033  0.1333 -0.1634
    1W        W51477   6.212  21.187   9.066 -0.1953 -0.0603 -0.0474
    1W        W51478  14.472   0.836   1.962 -0.2182 -0.1959  0.0514
    1W        W51479  17.480  13.013   7.764  0.1699 -0.0001 -0.2280
    1W        W51480   5.897   0.032   9.284  0.3728 -0.1033  0.3390
    1W        W51481   0.816  20.267   7.931  0.1598 -0.3240  0.1172
    1W        W51482  16.461  29.069   1.562 -0.2105  0.1159 -0.2410
    1W        W51483   8.279  19.510   0.116 -0.2070 -0.1789 -0.0464
    1W        W51484  29.220   4.830   2.238  0.0652 -0.3559 -0.1483
    1W        W51485  16.264   8.733   9.477  0.2640 -0.3428  0.2814
    1W        W51486  21.184   1.068   1.822  0.0069  0.2078 -0.0477
    1W        W51487  18.889  27.025   8.501 -0.1718  0.2893 -0.0181
    1W        W51488  16.779  12.506   2.036 -0.0768 -0.0030 -0.1254
    1W        W51489  20.517  16.073   7.889 -0.1081 -0.0806  0.0417
    1W        W51490   2.939  29.124   7.224 -0.1056 -0.1844  0.0328
    1W        W51491  10.317  24.929   7.699  0.0078 -0.1507  0.0169
    1W        W51492  19.092  17.497   0.637  0.0182 -0.2509 -0.1054
    1W        W51493   5.291   7.279   2.397  0.2334 -0.2043 -0.2317
    1W        W51494  16.295   4.194   1.381 -0.0836 -0.0358  0.1575
    1W        W51495  10.241   4.256   1.674 -0.1118  0.2151 -0.1515
    1W        W51496   6.409   3.111   2.391 -0.0992 -0.0205 -0.0358
    1W        W51497  14.524  17.697   1.118 -0.1310  0.0409 -0.2323
    1W        W51498  18.118   5.397   3.401  0.0402 -0.0302  0.1094
    1W        W51499  14.157  15.366   1.281 -0.3341 -0.0444  0.2823
    1W        W51500   9.579  11.471   0.860 -0.1203 -0.0526 -0.0273
    1W        W51501  25.342  11.843   9.166 -0.1375  0.0895 -0.0051
    1W        W51502  18.106   5.563   2.857 -0.1673 -0.4795 -0.1185
    1W        W51503  15.691  11.506   1.891  0.1805  0.1655  0.0628
    1W        W51504  24.749   2.925   7.849 -0.1631 -0.1280  0.0388
    1W        W51505  17.538  21.147   7.430  0.3283 -0.3684  0.0449
    1W        W51506  24.846   8.670   8.693  0.4859  0.2485  0.3678
    1W        W51507  16.178   1.334   9.059 -0.3427 -0.0532  0.3522
    1W        W51508  22.124  20.928   2.196 -0.0948 -0.1924  0.4083
    1W        W51509  29.256  20.876   9.486 -0.0816 -0.0433  0.1067
    1W        W51510  10.649  24.957   8.072  0.2067 -0.2946  0.1970
    1W        W51511  25.085   4.483   2.821  0.2247  0.0747  0.2136
    1W        W51512  16.424  14.343   7.351  0.1736 -0.1543 -0.2621
    1W        W51513  25.634  19.451   1.698  0.1628 -0.0304 -0.0432
    1W        W51514   4.557   9.408   2.786  0.0316 -0.1005  0.0415
    1W        W51515  23.001   5.338   6.074  0.2883 -0.2659  0.1088
    1W        W51516  14.051  27.030   2.306  0.1561 -0.0491 -0.0277
    1W        W51517  27.641  20.377   2.564 -0.0797 -0.1429 -0.0054
    1W        W51518  10.611  19.338   8.119 -0.5072  0.1506  0.0760
    1W        W51519  22.666  25.841   2.804  0.0755 -0.2054  0.2969
    1W        W51520  26.958   8.685   8.853  0.0000 -0.0167  0.3355
    1W        W51521   2.557  17.466   8.518  0.1495 -0.2087  0.3160
    1W        W51522  25.346  15.325   1.589 -0.0939 -0.0206  0.1247
    1W        W51523  11.139  21.540   6.578  0.2752 -0.0366 -0.1459
    1W        W51524   2.643  19.973   0.854  0.1136  0.0021 -0.3008
    1W        W51525  10.178  13.112   7.453 -0.1848 -0.2690  0.1801
    1W        W51526  13.747  19.304   2.274 -0.0429 -0.1022 -0.2025
    1W        W51527  19.672  24.378   1.739 -0.0687 -0.0542 -0.2039
    1W        W51528   4.571   0.057   0.885 -0.0653 -0.1646  0.2928
    1W        W51529  14.776  22.644   0.527  0.2868 -0.2311  0.0761
    1W        W51530  15.791   6.912   8.802 -0.0513  0.0592 -0.1937
    1W        W51531   9.040   1.700   0.531  0.0993 -0.3324 -0.3955
    1W        W51532  18.054  29.198   1.211  0.0039  0.1635 -0.0086
    1W        W51533   3.916  25.042   0.210 -0.0468  0.4658  0.2496
    1W        W51534  10.991  26.153   0.267 -0.0322 -0.1579 -0.2263
    1W        W51535   7.502  17.281   7.607  0.0440 -0.1069 -0.0913
    1W        W51536  21.151   5.752   0.432  0.1736  0.0961  0.1902
    1W        W51537  18.885  20.351   8.175 -0.2610 -0.1917  0.2594
    1W        W51538   0.463  21.060   1.940  0.0303  0.0683 -0.1984
    1W        W51539  14.142  23.194   3.275 -0.0008  0.0270 -0.3030
    1W        W51540   3.070   5.087   0.458  0.3291 -0.5023  0.0163
    1W        W51541  15.637  14.026   7.801 -0.3015  0.1103 -0.1906
    1W        W51542   4.984  18.262   2.243  0.2403  0.1098  0.2798
    1W        W51543  23.482  28.747   9.530  0.1347  0.3283 -0.3969
    1W        W51544   5.114  11.445   2.393 -0.0674  0.0899 -0.0608
    1W        W51545  25.355  13.766   9.160  0.3363  0.1333  0.0505
    1W        W51546  25.039  20.031   0.166  0.2183  0.1294  0.2407
    1W        W51547  18.787  10.282   7.592  0.2900  0.0379 -0.1220
    1W        W51548  19.214  22.896   7.587 -0.1603  0.0047  0.2431
    1W        W51549  24.907  27.723   0.687  0.4371 -0.0484 -0.1098
    1W        W51550  26.112  14.244   1.215  0.0984  0.5186 -0.0722
    1W        W51551  11.939   0.313   4.621  0.3540  0.4873  0.1809
    1W        W51552  18.956  18.403   1.952 -0.0470  0.2992  0.0505
    1W        W51553   8.696  24.868   6.832 -0.0832 -0.5984  0.0665
    1W        W51554   5.122  13.854   6.975  0.0563  0.1989 -0.0580
    1W        W51555   2.136   3.778   0.489 -0.0413  0.0302 -0.0009
    1W        W51556  11.717   8.391   2.531  0.2103  0.4616  0.0378
    1W        W51557   0.464   4.436   8.002 -0.1011  0.0076 -0.2836
    1W        W51558   7.474  14.139   9.262  0.1487  0.2600 -0.2189
    1W        W51559  13.389  13.893   7.987 -0.1059 -0.1683 -0.1123
    1W        W51560   6.607   9.098   8.039 -0.0663 -0.0113 -0.1102
    1W        W51561  25.325  13.305   1.926 -0.0542  0.0009  0.0658
    1W        W51562   4.986  23.434   2.191 -0.1812 -0.1452  0.0808
    1W        W51563  16.513  28.422   0.180  0.2150 -0.1372 -0.3928
    1W        W51564  11.128  23.752   0.957 -0.0034 -0.2210 -0.0247
    1W        W51565   5.975  25.818   8.847 -0.1931  0.0870 -0.0746
    1W        W51566   2.599   2.449   1.574  0.0467 -0.3460  0.0052
    1W        W51567  25.524   4.116   6.756  0.0125  0.2713 -0.2094
    1W        W51568   2.789  22.016   1.333 -0.4538 -0.0449  0.2150
    1W        W51569   7.213  13.397   0.767  0.1485 -0.1919  0.1465
    1W        W51570  18.193   5.033   8.810  0.0407 -0.2024  0.1671
    1W        W51571  22.127   0.865   7.401 -0.6641 -0.2377 -0.1070
    1W        W51572  15.102   0.456   2.960 -0.2395 -0.2613  0.0713
    1W        W51573   3.648  17.841   0.340  0.0166 -0.2816  0.0912
    1W        W51574   3.021   6.083   6.456 -0.0111 -0.0965 -0.0619
    1W        W51575  22.717   4.546   8.313 -0.3048 -0.1043 -0.0541
    1W        W51576  24.701   7.639   0.795 -0.1916  0.0798  0.0246
    1W        W51577  28.314   8.391   1.692  0.0949 -0.0859 -0.0059
    1W        W51578  16.509   8.964   7.431 -0.3730 -0.0904 -0.2069
    1W        W51579  15.436   4.710   3.343  0.2447  0.1112 -0.0596
    1W        W51580   1.271  16.368   0.150  0.0215 -0.4424 -0.0575
    1W        W51581  15.505   7.340   1.511  0.0516 -0.0455  0.0114
    1W        W51582  22.044  16.910   1.396  0.1990  0.0129 -0.0706
    1W        W51583   2.652  29.282   9.445 -0.1769 -0.1606 -0.0777
    1W        W51584   6.939  27.535   8.628  0.1774  0.0323  0.0250
    1W        W51585  13.423  18.079   7.354 -0.0709 -0.1036  0.1687
    1W        W51586  10.868  18.667   1.125  0.0461  0.1103  0.1707
    1W        W51587   6.615   3.211   9.080  0.2851 -0.1355 -0.2818
    1W        W51588  26.461  20.242   8.813  0.1531  0.0995  0.0689
    1W        W51589  17.414   7.060   2.736 -0.0469  0.0723 -0.1655
    1W        W51590   3.889  10.211   0.208 -0.1574 -0.1369  0.2715
    1W        W51591  24.507  14.452   5.682 -0.2089 -0.2119  0.0350
    1W        W51592  24.929   1.218   7.703  0.4945 -0.1564 -0.1345
    1W        W51593  18.663   8.205   6.887 -0.0374  0.1927  0.0789
    1W        W51594   8.642  10.954   8.399 -0.1868 -0.2322 -0.0960
    1W        W51595  18.715  21.783   7.986 -0.1639 -0.1035  0.0296
    1W        W51596  21.306   5.481   9.307 -0.0254  0.0410 -0.0224
    1W        W51597  10.531  20.912   8.978  0.0067 -0.4374 -0.0448
    1W        W51598  13.846  22.926   2.424  0.1172 -0.3015 -0.0894
    1W        W51599  23.903   4.368   0.494 -0.1312  0.0838  0.3589
    1W        W51600  27.582   4.529   1.937  0.2315 -0.0910 -0.0778
    1W        W51601  15.067  20.765   1.628  0.1299 -0.5210 -0.1892
    1W        W51602  14.228   3.142   8.667  0.0524  0.0596  0.1980
    1W        W51603  19.680   6.325   7.136 -0.1591 -0.3369 -0.1356
    1W        W51604   2.269  13.856   9.421 -0.0955  0.1023 -0.2447
    1W        W51605  14.772  28.441   1.939 -0.4065  0.0358 -0.1949
    1W        W51606  27.234  19.982   7.633  0.1068 -0.2427  0.2871
    1W        W51607  16.435  20.570   0.025  0.2326  0.0405  0.0107
    1W        W51608  14.292   4.617   1.215 -0.2302  0.1202  0.0470
    1W        W51609   2.531  20.258   6.304  0.2641  0.0982  0.1196
    1W        W51610   3.816  11.343   0.970 -0.1394  0.4106  0.3677
    1W        W51611   9.550  13.971   9.605  0.2090 -0.0686  0.1256
    1W        W51612  11.722  11.644   1.929  0.1830  0.0091  0.0653
    1W        W51613  27.790  16.971   3.308 -0.1786  0.0858 -0.5302
    1W        W51614  20.802   0.347   2.092 -0.1779  0.1594  0.0329
    1W        W51615  11.002  19.564   1.734 -0.1311  0.1641 -0.5174
    1W        W51616   9.879  12.582   1.760  0.2229 -0.0271  0.0740
    1W        W51617   9.327  19.140   0.113  0.0162 -0.0728 -0.2979
    1W        W51618  25.133  13.205   9.174  0.2185 -0.5012  0.0374
    1W        W51619  21.263   7.509   2.147 -0.1075  0.1829  0.0256
    1W        W51620   5.798  10.008   0.122  0.2780  0.0184 -0.1171
    1W        W51621  11.449   8.450   9.474 -0.3199  0.1412 -0.0884
    1W        W51622  21.503   2.677   7.940  0.2480  0.1938  0.0513
    1W        W51623   1.729  20.631   8.004  0.0091  0.1180 -0.0236
    1W        W51624  24.415  17.067   2.073  0.2655 -0.0882 -0.1443
    1W        W51625  13.531   4.071   1.339  0.4313 -0.3206 -0.1537
    1W        W51626   7.875   0.352   2.808 -0.1163 -0.1792  0.1233
    1W        W51627  16.421   3.860   8.528  0.0593 -0.0969  0.0093
    1W        W51628  16.439   6.015   0.271  0.2518  0.1677  0.0922
    1W        W51629   9.600   1.753   1.408  0.0373 -0.1725 -0.0196
    1W        W51630  19.431  10.307   9.404 -0.2122  0.3872 -0.2126
    1W        W51631   9.981  23.598   9.542  0.0516 -0.2732  0.0251
    1W        W51632  26.933   7.394   6.670 -0.2909 -0.0742  0.1870
    1W        W51633   0.236   5.383   6.907  0.2124  0.0527  0.0139
    1W        W51634   3.836  11.426   3.308  0.0209  0.0463  0.0776
    1W        W51635  22.473  25.456   1.576  0.0679  0.1771 -0.3561
    1W        W51636   3.198   2.119   8.582  0.1607  0.2206 -0.0622
    1W        W51637  18.208  13.352   7.878  0.0000  0.0056 -0.1774
    1W        W51638   5.306  10.223   0.860  0.1142 -0.1424 -0.0913
    1W        W51639  29.248   2.033   6.479  0.2878 -0.1271  0.2544
    1W        W51640  26.082  26.648   1.261  0.0726 -0.1428  0.2375
    1W        W51641   1.726  23.851   9.566  0.2149 -0.1842 -0.0068
    1W        W51642  17.407   2.349   8.928 -0.1084  0.0624 -0.0782
    1W        W51643  13.636   6.735   2.923  0.0411  0.0056  0.0106
    1W        W51644  11.906  21.685   8.096  0.1923  0.1918 -0.0878
    1W        W51645   1.811  11.387   8.159 -0.1530 -0.0491  0.0517
    1W        W51646  19.310   9.055   9.027  0.3610  0.1355  0.0470
    1W        W51647   7.865  15.680   9.255  0.1155  0.2759 -0.0679
    1W        W51648   7.950  28.412   1.064  0.2317 -0.1111  0.0055
    1W        W51649  12.074  27.518   8.755  0.0018  0.0165 -0.0379
    1W        W51650   9.034  12.247   1.755 -0.0151  0.0101  0.2397
    1W        W51651  26.772  24.198   9.414 -0.0806  0.0169  0.3450
    1W        W51652  11.738   3.430   8.823 -0.0435 -0.1208 -0.0848
    1W        W51653  15.322  15.358   9.154  0.0180  0.1546 -0.1284
    1W        W51654  16.876   0.976   0.608  0.3031  0.0533 -0.1283
    1W        W51655   2.464   5.128   9.105 -0.2599 -0.0644  0.2720
    1W        W51656   7.635  19.350   7.688 -0.0110 -0.2263 -0.3242
    1W        W51657  15.439  27.667   4.331 -0.0149  0.0090 -0.0223
    1W        W51658  25.760  15.856   7.879  0.1377 -0.0847  0.0914
    1W        W51659  16.241  13.207   7.603 -0.1416 -0.0431 -0.2502
    1W        W51660  12.341  27.510   1.322  0.1310  0.0563  0.2343
    1W        W51661  17.966  27.626   0.656 -0.0565  0.2299 -0.0591
    1W        W51662   3.589  24.735   2.725  0.2203 -0.0487 -0.0293
    1W        W51663   9.881   6.137   2.042  0.2250 -0.0858  0.0697
    1W        W51664   1.515  22.282   7.339  0.0361 -0.0511 -0.0927
    1W        W51665  16.673  28.975   2.954 -0.1269 -0.0179 -0.2110
    1W        W51666   3.782  14.110   7.589 -0.2306  0.3383  0.1361
    1W        W51667  12.464   1.333   8.509  0.4727 -0.1790  0.0253
    1W        W51668  12.083  26.165   1.219 -0.3473 -0.0977  0.2236
    1W        W51669   4.209  10.694   8.165  0.3336  0.3322 -0.1818
    1W        W51670  18.982  15.989   8.026 -0.2153  0.1300 -0.2371
    1W        W51671  24.452   0.765   1.038  0.1527 -0.0746 -0.2131
    1W        W51672   0.508   7.516   9.142 -0.3237  0.3172 -0.0552
    1W        W51673   6.584  21.437   0.202 -0.0680 -0.1968  0.1026
    1W        W51674  16.508  15.940   0.883 -0.1800 -0.0016 -0.3587
    1W        W51675  22.784  27.517   2.217  0.0201  0.0519 -0.2154
    1W        W51676  16.548  27.719   2.633  0.3138 -0.3045 -0.2732
    1W        W51677   0.867  16.402   0.486 -0.0138  0.1106 -0.1318
    1W        W51678  20.907   3.489   8.599  0.0709  0.3331  0.1130
    1W        W51679  13.194  21.817   2.267 -0.0386 -0.1350  0.0004
    1W        W51680   3.572  28.999   2.066 -0.0950  0.0421  0.0221
    1W        W51681   8.405   3.299   8.760  0.0494 -0.0505  0.0127
    1W        W51682  26.142   5.883   0.770  0.0796  0.2685  0.1755
    1W        W51683   9.441   8.591   0.022 -0.4130  0.4380  0.0495
    1W        W51684   0.853  19.152   7.928 -0.2615 -0.2197 -0.2009
    1W        W51685   4.226   0.649   7.696  0.0513 -0.1118  0.1219
    1W        W51686  25.924   9.488   1.709 -0.0579  0.0843  0.2189
    1W        W51687   1.238   2.556   1.105 -0.0911 -0.0838 -0.2450
    1W        W51688   9.092  21.418   1.675 -0.0836  0.1086 -0.0429
    1W        W51689  11.714  23.597   8.969 -0.1389 -0.2726  0.0001
    1W        W51690   6.500   1.160   9.616  0.1589 -0.3126 -0.0875
    1W        W51691  19.363  18.352   2.347 -0.1823 -0.0161 -0.1497
    1W        W51692   6.524   8.211   1.940 -0.0363  0.0897  0.0540
    1W        W51693  20.620  23.526   2.875 -0.0942  0.1682 -0.1806
    1W        W51694  25.081  20.810   1.919 -0.2663  0.0366 -0.1250
    1W        W51695   0.201  24.970   9.192  0.0802  0.0327  0.0482
    1W        W51696  26.948   0.070   1.893 -0.0492 -0.3134  0.1384
    1W        W51697   6.931  27.592   3.647 -0.1270 -0.0319  0.1248
    1W        W51698  20.559   1.758   7.861 -0.1010  0.0080 -0.1273
    1W        W51699  16.748   6.936   0.242 -0.1222 -0.0805  0.3721
    1W        W51700  13.537  24.134   2.817 -0.0740  0.0057  0.1838
    1W        W51701   5.117  15.085   6.116  0.1733 -0.0467  0.0093
    1W        W51702   8.722  11.193   7.705  0.2258 -0.2423 -0.0588
    1W        W51703   6.012  12.519   7.511 -0.1548  0.1967  0.1122
    1W        W51704  14.498  21.810   7.427 -0.4291 -0.2229 -0.2347
    1W        W51705   4.646  11.746   8.551  0.0472  0.2754  0.0706
    1W        W51706  28.216  15.613   1.273  0.4900  0.2653 -0.1320
    1W        W51707  12.626  25.157   8.696 -0.1435  0.0202 -0.0731
    1W        W51708  20.618  25.467   7.526 -0.0768  0.0988 -0.0430
    1W        W51709  29.239   6.710   2.615  0.0439  0.0266  0.0799
    1W        W51710  13.708  20.655   7.288  0.3967 -0.3153 -0.2009
    1W        W51711  18.395  21.641   7.549  0.3206  0.1076 -0.2246
    1W        W51712   2.220  12.292   1.594 -0.0897 -0.1878 -0.3176
    1W        W51713  15.423  27.045   1.637  0.2484 -0.3640  0.1596
    1W        W51714  15.581  14.654   1.560 -0.3607  0.0479 -0.2333
    1W        W51715   6.742   8.203   8.496 -0.3196 -0.0178  0.2036
    1W        W51716   4.627  18.725   1.769 -0.1320  0.0740  0.4706
    1W        W51717  22.032  25.073   1.316 -0.0897 -0.1768  0.3100
    1W        W51718  19.160  27.864   3.134 -0.0399  0.2523  0.3254
    1W        W51719   1.592  28.296   2.166  0.2560  0.0619  0.1228
    1W        W51720   6.506   4.347   9.049  0.0933 -0.1975  0.1194
    1W        W51721  24.454   0.350   0.675  0.1406 -0.0102 -0.2323
    1W        W51722   4.223  24.610   7.004  0.1195  0.2029 -0.2807
    1W        W51723  27.424  20.575   6.369 -0.4555 -0.0954  0.1016
    1W        W51724  11.071  19.627   0.806 -0.0271  0.0981 -0.1213
    1W        W51725  21.819  14.772   8.165  0.0774 -0.1831  0.1638
    1W        W51726   0.988   0.195   1.322 -0.0453 -0.4246  0.0450
    1W        W51727  11.562  23.951   1.165 -0.0971  0.3031  0.0325
    1W        W51728   5.652  14.244   8.914  0.1543 -0.1841  0.0684
    1W        W51729   6.578  20.222   8.087  0.0410 -0.2348 -0.1313
    1W        W51730   2.959   2.790   9.671 -0.3199  0.1256 -0.2755
    1W        W51731  14.826  15.744   7.941 -0.1190  0.0242 -0.0548
    1W        W51732   9.867   0.626   3.224  0.0136  0.1815 -0.1543
    1W        W51733   7.441  10.364   2.294 -0.1798  0.1198  0.3179
    1W        W51734  18.127  25.613   2.192  0.0700 -0.1196 -0.0549
    1W        W51735  25.272   7.962   1.439 -0.0224  0.3191  0.1298
    1W        W51736  20.984  19.372   0.750 -0.0729 -0.2967 -0.1785
    1W        W51737  19.155   1.167   2.389  0.3418 -0.1949  0.0404
    1W        W51738  17.113  16.633   8.607  0.0997 -0.2110  0.1074
    1W        W51739  14.817   5.366   2.541 -0.0433 -0.0174  0.0793
    1W        W51740  19.029   8.020   1.037 -0.1285 -0.0743 -0.3125
    1W        W51741  14.920  23.291   8.305 -0.1486 -0.2641  0.1145
    1W        W51742  21.729  24.127   8.853  0.3619 -0.3170 -0.0257
    1W        W51743   6.437   2.550   8.345  0.3187 -0.1415 -0.3090
    1W        W51744  22.365  23.371   0.128 -0.3443 -0.1568  0.0132
    1W        W51745   2.242   9.076   2.560 -0.0181 -0.1277  0.0303
    1W        W51746   2.477   9.091   0.206 -0.3389  0.0820  0.3094
    1W        W51747  21.525  12.746   0.348  0.1300  0.2564 -0.0396
    1W        W51748  29.139  12.800   0.961 -0.3308  0.2769 -0.1628
    1W        W51749  17.498   3.296   3.735 -0.0792  0.0959 -0.2510
    1W        W51750  15.038   5.985   3.577 -0.3399 -0.1888 -0.1399
    1W        W51751  14.577   1.061   8.484 -0.0320  0.0628 -0.0346
    1W        W51752  22.248  22.387   9.596 -0.1891  0.1608 -0.1911
    1W        W51753  27.931   8.631   7.161 -0.1351 -0.0518 -0.0074
    1W        W51754  10.341   2.410   1.045 -0.1204  0.1342  0.1757
    1W        W51755  13.478  12.254   8.646  0.1477  0.3381  0.0381
    1W        W51756   4.562   6.573   0.959  0.0226  0.0634 -0.1182
    1W        W51757  22.092  12.244   1.281  0.0922 -0.2740  0.0069
    1W        W51758  20.021  13.705   6.973  0.0389  0.2125 -0.2929
    1W        W51759  18.466  13.936   7.216 -0.1335 -0.2119  0.5395
    1W        W51760  11.755  24.988   9.365 -0.0168  0.4593 -0.1899
    1W        W51761  28.849   5.876   7.056  0.3306 -0.2646 -0.1519
    1W        W51762   3.818   5.878   9.333  0.1075  0.1650 -0.2471
    1W        W51763  25.694   5.916   8.132  0.0857  0.4123 -0.3293
    1W        W51764  29.086  17.687   0.989  0.3543  0.2382 -0.2193
    1W        W51765  27.804  17.138   7.881  0.2236  0.0883  0.1150
    1W        W51766  25.620   5.596   6.713  0.0369  0.3010  0.1330
    1W        W51767  24.798  11.573   9.203 -0.1683 -0.3561  0.1005
    1W        W51768  11.614   2.017   0.151  0.4089 -0.1810  0.0934
    1W        W51769  26.398  11.826   8.270 -0.0227  0.2785 -0.0469
    1W        W51770  24.126   0.287   8.394  0.1704  0.0641 -0.1135
    1W        W51771  20.330  18.820   8.737  0.2949  0.0481  0.0623
    1W        W51772   5.499  23.743   1.539  0.0978  0.3493  0.1065
    1W        W51773   7.408  28.073   9.491  0.1674 -0.2678  0.0132
    1W        W51774  24.862  11.851   8.129 -0.1655  0.1209  0.0379
    1W        W51775  22.681  18.344   9.337  0.0383 -0.0894 -0.2123
    1W        W51776   7.726  17.084   8.139  0.1318 -0.0721  0.2317
    1W        W51777  21.375   5.271   8.162  0.0741  0.0407 -0.0555
    1W        W51778  13.486   9.216   0.493 -0.2378  0.0594  0.0733
    1W        W51779  26.969  16.987   0.798  0.1213  0.0012  0.0328
    1W        W51780   0.214  12.774   2.724 -0.3434  0.0801  0.1299
    1W        W51781  10.025  10.585   2.273 -0.0659 -0.0568  0.2153
    1W        W51782  13.553  28.367   1.853 -0.2453  0.1384 -0.2193
    1W        W51783   5.120   3.366   2.875  0.0673  0.1401 -0.0009
    1W        W51784  18.236  25.593   9.436  0.3476 -0.1037  0.1276
    1W        W51785  28.682  28.797   8.469  0.1693 -0.0286 -0.0135
    1W        W51786  22.820  24.120   7.733 -0.1188 -0.1041 -0.0456
    1W        W51787  21.978  11.234   1.963 -0.0778  0.2570 -0.2267
    1W        W51788  19.752   9.075   8.151 -0.0754  0.1275  0.3029
    1W        W51789  10.114  25.601   8.704 -0.0840  0.0437  0.3809
    1W        W51790   8.662  13.105   0.609  0.2111 -0.3093  0.0765
    1W        W51791  22.146  10.023   1.939  0.4102 -0.3721  0.0326
    1W        W51792  11.968   3.318   0.020  0.1207 -0.3568  0.3179
    1W        W51793   3.728  24.773   6.643 -0.2469  0.1889  0.2632
    1W        W51794   0.369   1.995   2.999 -0.0343 -0.0350  0.1930
    1W        W51795  20.347   3.769   2.948 -0.3031  0.0575  0.0821
    1W        W51796  24.167  15.142   6.958 -0.0688 -0.2245  0.0261
    1W        W51797  13.117  20.299   8.950 -0.3065 -0.0466 -0.0971
    1W        W51798  20.479   4.636   8.941 -0.2445 -0.1389  0.1510
    1W        W51799   0.107   1.690   9.587  0.1872 -0.1104 -0.3627
    1W        W51800  23.032  28.743   6.778 -0.0029 -0.0463 -0.3768
    1W        W51801   7.705  11.034   2.909 -0.1808 -0.0814 -0.2837
    1W        W51802  23.281  24.055   8.509  0.2401  0.0869  0.4044
    1W        W51803  18.642  17.495   0.866 -0.2257 -0.1809  0.1041
    1W        W51804  18.896   8.424   1.380  0.1664 -0.2739  0.0178
    1W        W51805   2.022  27.672   7.823  0.0390 -0.1581  0.0742
    1W        W51806  22.312  20.777   8.286 -0.0607 -0.1793 -0.1309
    1W        W51807   7.096  23.257   8.063  0.0275  0.0254 -0.0184
    1W        W51808  10.644   8.427   9.143 -0.0245  0.1091  0.1913
    1W        W51809   0.131  27.050   8.910  0.1891 -0.0394  0.0540
    1W        W51810  28.565   3.098   7.320 -0.3486  0.1300 -0.0015
    1W        W51811   5.492   0.613   1.273  0.1349 -0.0294 -0.0439
    1W        W51812  21.780  17.027   0.401 -0.1438  0.2088  0.1378
    1W        W51813  20.651   3.983   7.410  0.1526 -0.0691 -0.0641
    1W        W51814  22.371  20.693   1.333  0.2633  0.0950 -0.1793
    1W        W51815  27.278  16.775   7.808 -0.5709  0.3300 -0.0922
    1W        W51816  27.330   7.849   9.078  0.0284  0.0016  0.0893
    1W        W51817  19.148  13.830   8.819 -0.3407  0.1079  0.3463
    1W        W51818  14.949  22.917   8.710 -0.0482  0.1058 -0.0764
    1W        W51819   7.612   4.616   3.701 -0.1372  0.0347 -0.2238
    1W        W51820   7.539  25.500   9.397 -0.3339 -0.0397  0.2382
    1W        W51821  26.439   9.770   6.907  0.0382  0.3559  0.1350
    1W        W51822   8.271   5.268   1.017  0.4601 -0.0659  0.0844
    1W        W51823   5.549  14.229   6.488  0.4054  0.1491 -0.1658
    1W        W51824   2.068   2.085   0.378  0.1594  0.0055  0.0263
    1W        W51825   9.583  12.860   9.524 -0.2027 -0.0491 -0.1130
    1W        W51826  19.205   4.338   7.688 -0.0733  0.1824 -0.1805
    1W        W51827   4.549  27.640   0.346  0.3615 -0.1332  0.3556
    1W        W51828  27.993   7.733   8.894  0.2473  0.0683  0.2032
    1W        W51829  18.635  16.519   9.243 -0.1716  0.1270  0.2587
    1W        W51830  16.820   1.266   7.864  0.1393  0.0346  0.0477
    1W        W51831   5.563  17.225   6.472  0.4885 -0.1816 -0.0582
    1W        W51832   9.684  13.087   1.667 -0.0121  0.0942  0.4723
    1W        W51833   1.299  25.399   1.034 -0.1579  0.1207 -0.0930
    1W        W51834   8.807   8.897   2.720 -0.1116 -0.3055 -0.2828
    1W        W51835   2.860  29.248   0.287 -0.0627 -0.0633 -0.3332
    1W        W51836  27.258  21.884   1.209 -0.1472 -0.1871 -0.0932
    1W        W51837  13.385   5.052   7.401 -0.0849  0.1146 -0.0408
    1W        W51838  23.173   8.748   1.355 -0.1031  0.0066 -0.1381
    1W        W51839  17.251  12.566   0.830 -0.0162  0.0267 -0.0317
    1W        W51840   8.248  16.039   1.126  0.2901 -0.1402  0.2572
    1W        W51841  22.521   3.775   0.389  0.4574  0.2239  0.1634
    1W        W51842  12.560  24.845   9.387 -0.1958 -0.2630 -0.1505
    1W        W51843  23.511   8.287   1.017 -0.2426  0.0444  0.0184
    1W        W51844  15.785  14.357   1.930  0.3818 -0.1696 -0.0761
    1W        W51845  24.653   4.156   6.880 -0.2393 -0.1050  0.1606
    1W        W51846  13.824  10.882   8.231  0.0771  0.1064  0.3599
    1W        W51847   3.750   8.971   8.564 -0.0261  0.4941 -0.0222
    1W        W51848  19.392  28.527   0.595 -0.0200 -0.0722 -0.1911
    1W        W51849  27.827   1.435   7.003 -0.1323  0.0410  0.1012
    1W        W51850  20.200  26.530   9.179  0.0214 -0.0572 -0.1634
    1W        W51851  14.549   3.439   8.299 -0.0074  0.0685  0.1462
    1W        W51852  28.655  16.353   9.665  0.1098  0.3054 -0.0144
    1W        W51853   1.500   0.700   8.874  0.3086 -0.2981  0.1926
    1W        W51854  11.874  25.050   7.126 -0.1606  0.4924  0.1018
    1W        W51855   4.961  21.937   6.774 -0.0810  0.2345  0.2016
    1W        W51856  19.163   8.717   8.610  0.3870  0.0719 -0.2025
    1W        W51857  21.044  16.262   2.176 -0.0244 -0.2455  0.0614
    1W        W51858   2.386   9.035   7.949 -0.0974  0.0257  0.0319
    1W        W51859  18.751  28.888   8.239 -0.1679 -0.1514  0.4395
    1W        W51860  21.142  13.391   1.150 -0.0118  0.1666 -0.2061
    1W        W51861   9.121  20.012   1.891 -0.3424 -0.0358  0.1024
    1W        W51862  24.317  17.341   8.924  0.0740  0.0047 -0.0141
    1W        W51863  25.039  11.706   7.524  0.0745 -0.0473 -0.2253
    1W        W51864  26.035  26.888   8.269  0.3235  0.0920  0.0113
    1W        W51865  21.362  16.883   7.064  0.0722  0.0535  0.0131
    1W        W51866   2.781   0.520   6.689 -0.1046 -0.1278 -0.2518
    1W        W51867  20.711  25.640   1.447  0.0507 -0.1236 -0.0710
    1W        W51868  17.595  25.604   8.522 -0.0494  0.0163  0.0469
    1W        W51869  18.183  23.911   6.649 -0.0228 -0.2454 -0.2545
    1W        W51870  21.656  26.563   6.807 -0.0758  0.2413 -0.2312
    1W        W51871  12.635   8.373   1.007  0.2144 -0.2447 -0.1469
    1W        W51872   1.711  21.660   8.917  0.2669 -0.0741 -0.1659
    1W        W51873  19.597  16.104   1.578  0.0810 -0.2363 -0.1435
    1W        W51874  11.312   7.233   8.362 -0.0993 -0.1985  0.0389
    1W        W51875  22.022  18.108   2.847 -0.0810  0.0850  0.0008
    1W        W51876  23.482   2.080   2.028 -0.0152 -0.4646 -0.3680
    1W        W51877  16.737   9.900   0.261  0.2011  0.0917 -0.1996
    1W        W51878  15.086  18.878   7.893  0.4308  0.4147  0.2583
    1W        W51879   4.781   6.233   8.807 -0.0708 -0.0890  0.1236
    1W        W51880  20.848  17.871   0.036  0.3252 -0.3143 -0.0817
    1W        W51881  21.174  23.166   9.684 -0.1490 -0.0454 -0.0560
    1W        W51882  10.452  12.002   8.119 -0.0444  0.0229  0.0997
    1W        W51883   0.872  16.006   0.079 -0.0809  0.0561 -0.1166
    1W        W51884  19.879  19.197   8.391  0.1636  0.2243 -0.0306
    1W        W51885   1.327  11.741   8.686 -0.1858  0.1271 -0.1332
    1W        W51886  11.016   5.754   7.506 -0.1510 -0.3581 -0.2111
    1W        W51887   6.052  16.588   1.629  0.2208  0.1192  0.0118
    1W        W51888  11.619   8.127   7.788 -0.0130 -0.0527 -0.0264
    1W        W51889  21.123  11.310   9.608  0.2214  0.0493  0.1375
    1W        W51890  22.825  22.015   3.540 -0.0986  0.2720 -0.2883
    1W        W51891   1.865  21.592   0.999  0.2267 -0.1913  0.1011
    1W        W51892  12.331  18.639   8.844  0.2722 -0.0082 -0.0878
    1W        W51893   3.994   0.102   2.779 -0.0642  0.1799 -0.0594
    1W        W51894  22.433   9.669   1.697  0.0180  0.1384  0.1544
    1W        W51895  16.682  16.808   0.882 -0.1751  0.0184  0.3134
    1W        W51896  14.611  25.553   3.040  0.1744 -0.2670 -0.2566
    1W        W51897  15.796   7.487   1.130  0.2530 -0.0317 -0.4821
    1W        W51898  22.841   6.847   1.423 -0.0187  0.1028  0.1336
    1W        W51899  12.462  24.252   6.736  0.2617  0.1651  0.1164
    1W        W51900  24.663   4.739   0.120 -0.1971  0.1893  0.0746
    1W        W51901   3.216  13.470   9.368 -0.1898 -0.1407  0.1134
    1W        W51902   8.742   8.825   0.403  0.0757  0.1206  0.0300
    1W        W51903  20.281  15.274   7.296 -0.2066 -0.1314  0.2623
    1W        W51904  18.501   9.174   1.770  0.1410  0.0381  0.0038
    1W        W51905   3.608   2.845   0.010 -0.0288  0.1857 -0.0915
    1W        W51906  17.802  23.643   1.405 -0.0496 -0.0131  0.1662
    1W        W51907   9.532   4.422   1.938  0.0587  0.0251  0.1183
    1W        W51908  16.021  17.831   7.864  0.0053 -0.0898 -0.2982
    1W        W51909  24.162   3.000   0.934  0.1297 -0.0966  0.5108
    1W        W51910  15.383  19.396   8.622 -0.0689  0.1038  0.3060
    1W        W51911   1.478  26.541   1.621  0.1469 -0.1208  0.0445
    1W        W51912   9.633  29.268   8.643 -0.0213  0.0013 -0.0081
    1W        W51913  13.616  22.546   9.638 -0.1477 -0.0181 -0.1034
    1W        W51914  23.795   6.025   2.192 -0.4466  0.0801 -0.0215
    1W        W51915  16.597  26.244   2.718 -0.3070 -0.1920  0.1835
    1W        W51916  14.314  19.752   1.917 -0.2314 -0.0848  0.3571
    1W        W51917  19.381   3.461   0.883  0.2327 -0.1206  0.1748
    1W        W51918  20.106  12.520   1.804  0.0208  0.0875 -0.4037
    1W        W51919   5.856  16.195   8.033  0.0868 -0.1922 -0.0513
    1W        W51920  16.201   3.934   0.944  0.1721 -0.1377  0.0890
    1W        W51921  12.717  14.544   8.846  0.0316 -0.0608 -0.1344
    1W        W51922   7.792   0.219   0.547  0.3641  0.1782 -0.2217
    1W        W51923  15.775   5.298   2.911 -0.1476 -0.2216 -0.1013
    1W        W51924   8.714  13.753   6.950 -0.2246 -0.1503 -0.0805
    1W        W51925   9.948  17.142   1.397 -0.1804 -0.0190 -0.1880
    1W        W51926   7.009  12.930   0.831 -0.0337  0.1804 -0.0690
    1W        W51927   2.788   0.713   8.302 -0.0706 -0.0360 -0.1997
    1W        W51928  13.019  23.452   7.975  0.0911  0.1340 -0.0224
    1W        W51929  12.621  16.365   0.848  0.1578 -0.0296  0.2070
    1W        W51930   0.215   7.027   2.907  0.2843  0.0844 -0.1335
    1W        W51931  24.562   9.264   7.532 -0.1197  0.1291 -0.0035
    1W        W51932  24.695   2.467   6.535  0.2862  0.0241  0.0818
    1W        W51933  12.421   4.331   2.790 -0.2828  0.0076  0.0331
    1W        W51934  15.624   7.607   8.158 -0.4697  0.3047  0.0022
    1W        W51935  24.314  21.281   6.548 -0.0574 -0.0817 -0.0742
    1W        W51936  28.087  26.134   9.543  0.4206 -0.0085 -0.3697
    1W        W51937   5.144  20.494   0.669 -0.3113 -0.1106  0.0950
    1W        W51938  21.806  19.737   0.719 -0.1221  0.0694  0.2868
    1W        W51939   5.019   7.887   1.194 -0.3037  0.1867  0.0505
    1W        W51940  18.702  26.538   1.921  0.3045 -0.2167 -0.2118
    1W        W51941  11.731   2.105   8.115  0.1899 -0.0250  0.0162
    1W        W51942  28.645  13.112   6.856  0.0422 -0.0563  0.1244
    1W        W51943   1.242   7.665   6.580  0.0665 -0.1795 -0.3126
    1W        W51944  13.194  28.465   3.423 -0.0574  0.0225 -0.2071
    1W        W51945  13.685  15.944   6.706  0.0764 -0.0181  0.2036
    1W        W51946  11.535  28.624   0.853  0.1100 -0.1504 -0.2515
    1W        W51947  16.185  18.964   1.316  0.1201 -0.0066 -0.0594
    1W        W51948  22.901  20.494   3.211 -0.1924 -0.1302  0.1877
    1W        W51949   1.197  28.113   6.534 -0.7092  0.1623  0.0198
    1W        W51950  16.503  15.185   8.287  0.0061  0.0638  0.3288
    1W        W51951  15.196   6.203   1.253  0.1330  0.4177  0.0762
    1W        W51952  21.443   5.049   0.448 -0.0307 -0.0625 -0.0065
    1W        W51953   8.456  11.230   1.543 -0.1499  0.0454 -0.1464
    1W        W51954  15.674  18.573   9.663  0.2020  0.2161  0.1023
    1W        W51955   4.643   5.080   8.695 -0.0353 -0.2551 -0.2128
    1W        W51956  23.971  26.160   7.596  0.3375 -0.2507  0.2910
    1W        W51957   6.109  11.151   8.243 -0.2502 -0.0734 -0.2201
    1W        W51958   1.299   9.054   8.142  0.0706 -0.2163  0.2022
    1W        W51959  25.402   4.713   7.191  0.0518  0.2453 -0.1812
    1W        W51960  18.579  26.141   3.160 -0.0125  0.1619 -0.1665
    1W        W51961   1.677  18.242   8.184  0.1049  0.0213  0.0896
    1W        W51962  17.211  23.073   0.522 -0.2763  0.1773  0.3471
    1W        W51963  28.422  20.591   2.153 -0.1720  0.0653 -0.0396
    1W        W51964   8.477   4.634   2.090  0.0320 -0.4151 -0.0458
    1W        W51965  24.273  20.673   6.562 -0.2338 -0.0815 -0.1127
    1W        W51966   6.113  26.048   8.349  0.1164  0.1588  0.2293
    1W        W51967   6.548   2.267   9.183 -0.0297 -0.0908  0.3242
    1W        W51968   1.830   7.247   1.398  0.0185  0.2035  0.1863
    1W        W51969  17.973  25.079   7.412  0.0971  0.2527 -0.0276
    1W        W51970   2.596  22.328   9.569 -0.1327  0.0213  0.0072
    1W        W51971   4.419  14.831   9.277 -0.0210 -0.0823 -0.0592
    1W        W51972   4.807   1.079   3.625 -0.0504  0.1483 -0.0286
    1W        W51973  18.728   5.121   8.692  0.3749  0.0344  0.0663
    1W        W51974  28.300  15.893   5.627  0.2556 -0.2032 -0.0456
    1W        W51975   8.518  25.681   2.480  0.0294 -0.0776 -0.0603
    1W        W51976  18.145   4.490   0.674  0.1976  0.0831  0.1488
    1W        W51977  21.405  27.421   8.037  0.0148 -0.1004  0.1309
    1W        W51978   7.448  10.507   9.385  0.1465 -0.0212 -0.0606
    1W        W51979  17.436  28.596   7.552  0.0350 -0.0305 -0.1302
    1W        W51980  13.731   3.511   1.149 -0.2164  0.4249  0.0064
    1W        W51981  12.882   0.803   2.899  0.0282  0.0169 -0.0545
    1W        W51982   0.537  28.487   7.073 -0.0333  0.1379  0.0646
    1W        W51983  26.641  24.288   8.919  0.0720 -0.1537 -0.0274
    1W        W51984   4.780  25.309   2.912  0.2368 -0.2360 -0.2295
    1W        W51985  25.782   5.552   8.430  0.0471 -0.0026 -0.1167
    1W        W51986   4.882   3.357   6.538 -0.0971 -0.3098  0.0758
    1W        W51987   5.818  13.642   9.125  0.1482  0.1361  0.0931
    1W        W51988   9.095  12.635   9.462  0.0665  0.0794 -0.0246
    1W        W51989  25.059  15.223   8.644  0.0772 -0.4755  0.1026
    1W        W51990   3.920   9.157   0.659  0.1514  0.1443 -0.1969
    1W        W51991  11.694  10.232   1.048  0.0952 -0.0023 -0.0322
    1W        W51992   4.246  18.709   9.232 -0.2558  0.4545  0.1232
    1W        W51993   3.130  23.545   5.995  0.0223  0.0850  0.0099
    1W        W51994  22.021  21.475   2.357 -0.0188 -0.1404  0.0026
    1W        W51995  15.486   5.046   1.368 -0.2050 -0.1625 -0.1668
    1W        W51996   7.394   8.484   2.068 -0.0756  0.0095  0.1890
    1W        W51997  19.394  20.988   9.441 -0.2257 -0.4235 -0.1304
    1W        W51998  11.982  18.724   2.155 -0.0173  0.0756 -0.1117
    1W        W51999   6.876   5.349   9.392 -0.1123 -0.2892 -0.0858
    1W        W52000  26.683   4.215   1.024  0.0593 -0.0544 -0.1845
    1W        W52001  21.741  24.010   2.646  0.1028  0.2068 -0.1148
    1W        W52002  29.312   3.548   0.146 -0.2766  0.2527 -0.0523
    1W        W52003  11.313  20.867   2.316 -0.0838  0.0251 -0.0387
    1W        W52004  28.610   6.331   6.478 -0.0051 -0.5114  0.1624
    1W        W52005  26.425  22.590   8.909 -0.1275 -0.1506  0.1274
    1W        W52006  17.814   6.808   1.326 -0.1483  0.1028 -0.3459
    1W        W52007  16.158  22.239   0.016 -0.3575  0.2392 -0.1082
    1W        W52008   7.370  23.781   1.516  0.0630 -0.2103 -0.2559
    1W        W52009  21.077  22.656   0.743  0.2069  0.0057 -0.2930
    1W        W52010  24.932  20.192   1.837 -0.1343 -0.0838  0.1717
    1W        W52011  13.909  24.310   7.161  0.2102  0.1126  0.1217
    1W        W52012  25.787  17.909   7.410  0.0742 -0.0389 -0.1007
    1W        W52013  22.261  16.125   6.404 -0.2175 -0.0719  0.2058
    1W        W52014   9.317  10.700   3.188 -0.1696 -0.0854  0.1987
    1W        W52015  26.607   5.509   2.078 -0.1031 -0.3122 -0.2420
    1W        W52016   0.865  27.598   7.403  0.2521  0.0666  0.5057
    1W        W52017   2.666  15.595   6.238 -0.1386 -0.0529  0.0554
    1W        W52018  20.493  26.140   0.215 -0.2990 -0.3196 -0.0403
    1W        W52019   8.362   1.104   2.477 -0.1433 -0.1445 -0.0196
    1W        W52020  26.462  11.471   7.796  0.0053  0.2114 -0.1747
    1W        W52021  19.153  19.832   2.911 -0.2189 -0.0823  0.4342
    1W        W52022   3.973  24.639   7.795  0.1857  0.0603  0.2040
    1W        W52023   9.619   8.261   0.394  0.1313 -0.0516  0.0249
    1W        W52024  10.696   3.831   3.885 -0.1050  0.0711 -0.2328
    1W        W52025  10.822  12.106   8.625 -0.0514 -0.1080 -0.0856
    1W        W52026  15.025  11.568   0.673 -0.1055 -0.1168 -0.1950
    1W        W52027  22.014  14.408   6.713 -0.1353  0.0850 -0.1179
    1W        W52028   6.703  25.115   9.593  0.1494 -0.0308 -0.0222
    1W        W52029   2.750   4.017   8.963  0.1389  0.0505 -0.2120
    1W        W52030   0.556  23.907   6.742 -0.3092  0.0118 -0.3249
    1W        W52031   6.788  27.974   8.939  0.2334 -0.0188  0.0164
    1W        W52032   5.282  20.594   0.104 -0.3366 -0.1399  0.1489
    1W        W52033   0.873  21.180   0.505 -0.1957 -0.1417 -0.0123
    1W        W52034   8.558  12.403   1.813  0.1237  0.0093 -0.1120
    1W        W52035  17.675  26.639   7.504  0.1002 -0.1338  0.2733
    1W        W52036  13.632  28.516   2.960  0.2314  0.1996 -0.2632
    1W        W52037  29.176   7.053   6.131  0.1270  0.0136 -0.0705
    1W        W52038  15.100   6.558   8.481 -0.1622  0.1614  0.3795
    1W        W52039  13.085   5.099   8.342  0.0900  0.0104 -0.0067
    1W        W52040  19.433  18.588   7.691 -0.2203  0.0448 -0.2925
    1W        W52041   6.617   1.079   0.394 -0.2355 -0.0054 -0.0317
    1W        W52042  11.113  12.583   0.214 -0.1915 -0.1080  0.2287
    1W        W52043  13.987   5.313   8.140 -0.4258 -0.0730  0.0130
    1W        W52044  24.061  22.462   2.186 -0.2479  0.0774  0.1603
    1W        W52045  27.281   7.735   0.280 -0.4506 -0.0311 -0.0182
    1W        W52046  25.377  13.900   6.814 -0.1305  0.0673 -0.1314
    1W        W52047  24.039  10.132   0.431  0.0010  0.0150  0.0234
    1W        W52048  18.538  28.127   0.662 -0.0269  0.0446  0.2547
    1W        W52049  25.796  28.204   9.296 -0.3208  0.0197 -0.1815
    1W        W52050   1.096  19.414   2.284  0.1107 -0.1721 -0.1569
    1W        W52051  24.661  14.664   2.669  0.0767 -0.0525 -0.0799
    1W        W52052  24.868  10.598   9.085 -0.1319 -0.0388 -0.2452
    1W        W52053   7.695  28.166   1.903  0.0655  0.1776  0.0489
    1W        W52054   9.861  22.202   0.489 -0.2036  0.1867 -0.2987
    1W        W52055  27.915   2.071   9.226 -0.0120  0.3958 -0.1440
    1W        W52056  17.522   1.556   7.386 -0.2070 -0.1556 -0.0192
    1W        W52057  20.545   9.802   0.875 -0.2200 -0.1635 -0.3381
    1W        W52058  16.499  15.308   7.455  0.1701 -0.0468 -0.3227
    1W        W52059  21.216  25.598   9.299  0.5723 -0.2882 -0.1816
    1W        W52060  25.609  28.901   1.869 -0.2466  0.0835 -0.1283
    1W        W52061   8.511  23.301   0.299  0.2838 -0.1018  0.2905
    1W        W52062   9.773  20.822   7.443 -0.3393  0.2845 -0.0538
    1W        W52063  24.944  15.642   1.941  0.0429  0.2014  0.1802
    1W        W52064   2.780  26.643   8.858  0.0604 -0.0285 -0.0974
    1W        W52065   7.842   4.947   8.140  0.1399  0.1236 -0.1799
    1W        W52066  23.924   3.756   0.486 -0.0669 -0.0771  0.1298
    1W        W52067  17.240   2.992   0.117  0.1571 -0.0993  0.1781
    1W        W52068  17.250  18.484   3.070 -0.0731  0.1575 -0.2143
    1W        W52069  20.398   3.814   6.144  0.1725 -0.1225  0.0930
    1W        W52070  22.399  12.703   8.491  0.2638  0.1433  0.1622
    1W        W52071  18.000   5.661   3.803 -0.1528 -0.0679 -0.0836
    1W        W52072  24.710  22.407   9.564  0.1940  0.0397 -0.0260
    1W        W52073   3.118  24.193   8.333  0.1350 -0.0036 -0.1914
    1W        W52074  13.342  21.533   1.202 -0.0552 -0.0119 -0.0281
    1W        W52075   4.510  20.491   7.188  0.0786 -0.2302 -0.2460
    1W        W52076  17.066  28.421   2.634 -0.1464 -0.0736 -0.0395
    1W        W52077  27.727   8.294   0.917 -0.1155 -0.2893 -0.0125
    1W        W52078   8.492  26.209   7.506  0.0269  0.0997  0.3752
    1W        W52079   5.846  16.941   7.275  0.1173  0.1848 -0.1618
    1W        W52080   8.803  21.935   1.304  0.1319 -0.0391  0.1445
    1W        W52081  20.178  24.719   2.007 -0.1241  0.2387 -0.2099
    1W        W52082  26.480  19.382   7.159 -0.1364  0.1140  0.0231
    1W        W52083  12.522  19.618   8.949 -0.0594 -0.4385  0.1850
    1W        W52084   0.970   9.183   7.399 -0.3267  0.0697  0.1614
    1W        W52085   5.297  17.537   0.216 -0.0145 -0.1075  0.1324
    1W        W52086   1.544  22.694   6.268 -0.1270  0.2172  0.2384
    1W        W52087   7.434  10.257   8.272 -0.1104  0.1120 -0.2323
    1W        W52088   2.657  22.503   6.865  0.0909 -0.2164  0.0143
    1W        W52089  28.498  17.032   0.852  0.2825 -0.1512 -0.2230
    1W        W52090   6.612  16.679   6.721  0.3010 -0.0466 -0.1467
    1W        W52091  20.495  28.334   0.403  0.0446 -0.4487 -0.0055
    1W        W52092  22.862  19.199   0.921 -0.1740  0.0711 -0.1955
    1W        W52093   7.771  23.075   5.790  0.1079 -0.1869 -0.3103
    1W        W52094  12.352   2.857   2.049  0.3319 -0.1278 -0.0403
    1W        W52095   4.890  19.429   1.819  0.0684  0.0047  0.2413
    1W        W52096   8.458  15.399   9.222  0.3101  0.0268 -0.1342
    1W        W52097  16.610   8.200   0.425 -0.1988 -0.2355 -0.0328
    1W        W52098  17.781  17.231   7.514 -0.1532  0.0078  0.2095
    1W        W52099   0.160   5.570   8.181  0.0564  0.2243 -0.1797
    1W        W52100  16.370   2.951   8.838 -0.0625  0.2338 -0.1322
    1W        W52101   8.932  23.755   9.415  0.0470  0.0605 -0.3897
    1W        W52102  15.158  10.781   8.384  0.0933  0.2081  0.0768
    1W        W52103   0.671  18.155   6.107 -0.1354 -0.0545  0.1086
    1W        W52104  27.785  19.778   1.436  0.1522  0.0842  0.2173
    1W        W52105  18.218  14.628   9.383  0.2827 -0.3013  0.0792
    1W        W52106   3.304   5.100   2.589  0.2024  0.0882  0.0497
    1W        W52107   6.238   4.221   1.558  0.2434 -0.1881 -0.4465
    1W        W52108   8.177  28.944   1.694  0.0478 -0.0965  0.0646
    1W        W52109  23.122  16.421   7.818  0.2754  0.2336  0.0575
    1W        W52110  25.983  20.630   8.068 -0.3505 -0.0907 -0.0969
    1W        W52111  24.943  12.133   7.766  0.1873  0.0833  0.0294
    1W        W52112   6.008   9.121   1.899 -0.1528  0.2483  0.0408
    1W        W52113  19.055  25.707   2.407 -0.1791 -0.1160 -0.1902
    1W        W52114  20.333   4.717   0.849 -0.1381 -0.0401  0.3224
    1W        W52115   8.579  17.744   6.964 -0.0273 -0.3763  0.0543
    1W        W52116  19.740  17.095   7.890  0.0106 -0.1888 -0.0514
    1W        W52117  10.361   4.671   2.799 -0.0956  0.0487 -0.1312
    1W        W52118  13.337  24.494   8.954 -0.0956 -0.0645 -0.2971
    1W        W52119  20.176  10.302   8.748 -0.2285 -0.1862  0.0740
    1W        W52120  24.941   5.034   2.102  0.2559  0.0142 -0.0728
    1W        W52121  25.221  22.732   7.491 -0.1527 -0.2543 -0.0357
    1W        W52122   9.411   3.200   1.191  0.0552 -0.0851  0.2441
    1W        W52123  18.731  18.764   9.499  0.1149  0.4363  0.0753
    1W        W52124  20.368   9.131   1.921 -0.1999  0.0131 -0.1911
    1W        W52125  18.576  13.770   7.697 -0.0988  0.2060  0.1962
    1W        W52126  21.346   6.634   1.910 -0.0421 -0.1541 -0.2114
    1W        W52127   1.273   8.188   7.357  0.1930  0.0062 -0.0246
    1W        W52128  20.131   5.572   8.509  0.0595 -0.0287  0.1941
    1W        W52129  26.161   8.950   8.066 -0.0672  0.2058  0.4280
    1W        W52130   6.794  14.589   0.143  0.3218  0.0680 -0.1295
    1W        W52131  12.912  16.441   9.633 -0.1268  0.2819 -0.0159
    1W        W52132  29.150  22.452   0.360  0.0631  0.1011  0.2726
    1W        W52133  24.899   3.440   2.482  0.0670 -0.1682  0.0029
    1W        W52134  19.886   8.534   2.661 -0.1287 -0.1269 -0.0352
    1W        W52135  17.148  25.596   7.571 -0.0501  0.0855 -0.2887
    1W        W52136  22.152  16.663   7.217  0.2893  0.0003  0.1105
    1W        W52137  17.971  22.582   7.549 -0.1329  0.0325  0.4051
    1W        W52138   0.397   2.665   1.305  0.2792  0.2446 -0.1826
    1W        W52139   9.983  26.399   8.252 -0.0005  0.1708 -0.0881
    1W        W52140   6.683  13.207   8.027  0.0129  0.4358 -0.2571
    1W        W52141   3.754  25.036   8.793  0.0993 -0.0958  0.0244
    1W        W52142  10.955  26.164   9.409 -0.0430  0.1308 -0.1162
    1W        W52143  11.555  18.833   0.493 -0.0454 -0.1171  0.0671
    1W        W52144  13.843  10.272   2.118  0.3652  0.1400  0.1345
    1W        W52145  16.403  13.587   9.032 -0.0318 -0.0478 -0.0261
    1W        W52146  28.578  21.578   0.857 -0.1460  0.0208 -0.2458
    1W        W52147  16.116  23.237   1.237 -0.0571  0.1502  0.2465
    1W        W52148  13.594   6.212   7.637  0.3970 -0.2238  0.1645
    1W        W52149  11.637  11.534   1.453  0.2254 -0.1627 -0.0749
    1W        W52150   5.269  19.485   8.959 -0.2739 -0.0172 -0.0985
    1W        W52151  16.218  13.189   8.136  0.0107 -0.1729 -0.1896
    1W        W52152   7.380  18.550   6.348  0.1370 -0.2642  0.3292
    1W        W52153   8.447  10.553   0.190 -0.0126  0.0746  0.0559
    1W        W52154  21.078   9.678   8.612  0.2985 -0.1180  0.4621
    1W        W52155   1.388  12.307   1.901  0.1981 -0.0265 -0.1663
    1W        W52156  28.431   5.650   8.154  0.0562 -0.0765 -0.2383
    1W        W52157  11.537  29.037   3.086 -0.2982 -0.0297 -0.1104
    1W        W52158  11.327   8.523   8.267  0.1555  0.1266  0.3141
    1W        W52159   0.429  18.846   7.986  0.1650  0.1001  0.0849
    1W        W52160   1.702   0.636   7.467 -0.1431  0.1964  0.2976
    1W        W52161  24.325   7.532   1.328 -0.0443 -0.0671 -0.2229
    1W        W52162  19.018  20.692   0.182  0.1631 -0.1854 -0.1906
    1W        W52163  24.544  11.305   7.095 -0.0624  0.2750  0.1079
    1W        W52164   7.442   9.782   7.260 -0.1828 -0.1442 -0.1046
    1W        W52165   1.418  25.262   8.393  0.1194  0.1631  0.2281
    1W        W52166   7.961  13.782   7.496  0.0375  0.0058 -0.0748
    1W        W52167  28.270   5.858   2.457 -0.1622 -0.1266  0.4579
    1W        W52168  14.474  15.863   9.372 -0.0202  0.2169 -0.0804
    1W        W52169   9.390  13.860   7.165 -0.3136  0.0603 -0.1072
    1W        W52170  10.516  17.227   0.834  0.0982  0.0677 -0.0822
    1W        W52171  18.721  20.372   9.446  0.1984 -0.1561  0.0959
    1W        W52172  13.636  11.593   2.126 -0.2186 -0.0998 -0.0060
    1W        W52173   5.989  23.497   1.365 -0.0939  0.1765 -0.3361
    1W        W52174  23.777  10.129   8.275 -0.1156 -0.3245 -0.0338
    1W        W52175   8.224   1.801   0.847  0.1994 -0.1112  0.0860
    1W        W52176   4.989  23.599   0.191 -0.0857 -0.0679  0.1368
    1W        W52177  20.437   4.646   2.645  0.0917  0.0793  0.2415
    1W        W52178   4.320  19.028   8.202 -0.0551  0.0504 -0.0519
    1W        W52179  10.022   1.270   0.195 -0.2080 -0.1627 -0.2062
    1W        W52180   3.908  28.409   8.647  0.2386 -0.2328  0.2231
    1W        W52181  26.971  18.720   7.282  0.0195 -0.0018 -0.1352
    1W        W52182  16.589  24.413   0.091  0.3310 -0.3077  0.0170
    1W        W52183   7.945  11.896   7.402  0.0241 -0.0884  0.1888
    1W        W52184   8.540  17.308   0.967  0.4223  0.0992  0.0224
    1W        W52185   9.673  19.523   1.269  0.0144  0.2509  0.1720
    1W        W52186  29.176   6.256   1.318  0.1340 -0.1608 -0.0878
    1W        W52187  10.259  16.730   8.004 -0.0267  0.1186  0.1480
    1W        W52188   1.013  28.375   6.946  0.0100  0.0614  0.0040
    1W        W52189  21.334   1.654   7.489 -0.0227  0.0732  0.0315
    1W        W52190  27.750   8.778   2.298  0.0094 -0.2634  0.2837
    1W        W52191   0.105  25.312   6.528 -0.1814  0.0080 -0.0008
    1W        W52192   3.762  26.304   8.044  0.2237 -0.0873 -0.0269
    1W        W52193  29.167  13.665   6.938 -0.1757 -0.3158 -0.0134
    1W        W52194  12.207  22.100   0.749 -0.1049  0.1580 -0.1353
    1W        W52195  11.433  15.365   8.876 -0.2254 -0.1171  0.1947
    1W        W52196  24.270  12.209   1.455 -0.3786 -0.1496 -0.2260
    1W        W52197   0.605   3.362   9.544  0.2086 -0.0280 -0.1758
    1W        W52198   0.163   4.639   7.591 -0.0820  0.3090 -0.0871
    1W        W52199   2.389   8.384   1.171  0.3015  0.0195 -0.2956
    1W        W52200   8.931  20.854   7.550  0.1700  0.1457 -0.0213
    1W        W52201  13.298  17.376   7.945  0.2175  0.1347 -0.1048
    1W        W52202   1.084  26.886   7.109  0.0242  0.0171  0.0684
    1W        W52203  21.717  11.621   2.025  0.3779 -0.1186 -0.2883
    1W        W52204  20.577   7.450   8.285 -0.0128  0.1090 -0.3009
    1W        W52205  15.226  11.822   1.930 -0.4267 -0.2492  0.2810
    1W        W52206   8.116  28.778   8.241  0.1507 -0.3227 -0.0052
    1W        W52207  25.413  27.410   1.031  0.0255  0.0945  0.3059
    1W        W52208  26.838  26.343   6.952 -0.2307 -0.0091  0.0741
    1W        W52209  16.701   8.571   9.287  0.0293 -0.0923  0.2109
    1W        W52210  28.850  18.546   3.041 -0.1215 -0.0535 -0.0423
    1W        W52211   6.975   9.998   0.468 -0.2861 -0.1444 -0.4009
    1W        W52212  26.657  15.745   1.522  0.3898 -0.1205  0.4097
    1W        W52213  17.854  21.002   3.239 -0.2109 -0.2650 -0.1530
    1W        W52214  24.855   0.563   0.839 -0.1755  0.3214 -0.2691
    1W        W52215   0.269  20.591   0.249 -0.1255 -0.0320 -0.2054
    1W        W52216  10.699   3.212   3.373 -0.0430  0.1218  0.0055
    1W        W52217  14.425  20.243   1.865 -0.2316 -0.3403 -0.0322
    1W        W52218  15.399  25.369   2.181  0.0355  0.0160 -0.0545
    1W        W52219  17.613   3.334   8.955  0.0484  0.1894  0.0735
    1W        W52220   5.576  26.119   7.606 -0.5245 -0.0147  0.1888
    1W        W52221  10.366   1.896   7.842 -0.0849  0.0540  0.1656
    1W        W52222  19.973   3.593   2.645 -0.0054  0.0415  0.0624
    1W        W52223  19.007  15.045   9.121  0.1258 -0.1294 -0.2641
    1W        W52224   6.967  13.900   8.980  0.0459  0.0711 -0.3277
    1W        W52225   2.390  20.255   7.451  0.0338 -0.3663 -0.0580
    1W        W52226  13.494  25.957   8.067  0.0375 -0.1294 -0.1792
    1W        W52227   7.036  26.664   1.526  0.2281  0.2301  0.0977
    1W        W52228  11.320   6.748   2.970 -0.1443 -0.1530  0.2676
    1W        W52229  28.754  23.967   1.251 -0.1043 -0.0306  0.2293
    1W        W52230  25.250  24.217   9.072 -0.0914  0.1072  0.0055
    1W        W52231  27.903   8.312   2.200  0.0065  0.0543 -0.0841
    1W        W52232  28.568  28.337   8.589 -0.0418 -0.0118 -0.1742
    1W        W52233   4.198   2.084   2.977  0.0251  0.1167 -0.1901
    1W        W52234   6.203  14.502   7.794  0.1742  0.0309  0.3656
    1W        W52235  23.349  11.739   0.474  0.2838 -0.0610  0.1427
    1W        W52236  26.264  27.943   9.043  0.1228 -0.1796  0.1055
    1W        W52237  21.374   6.133   7.324 -0.0199  0.4854 -0.3975
    1W        W52238  26.381   3.167   2.375 -0.1677  0.0602  0.0371
    1W        W52239  27.476  17.179   0.974 -0.1352 -0.0371  0.1573
    1W        W52240  10.443  22.351   7.112 -0.4598  0.0216 -0.0701
    1W        W52241  21.427   5.441   0.132  0.0366  0.3182 -0.0033
    1W        W52242  14.651  27.657   3.069 -0.0593  0.0808  0.3441
    1W        W52243  18.480   7.470   1.503 -0.0960  0.1437 -0.1460
    1W        W52244   5.663   1.925   8.501  0.0127  0.3465  0.1608
    1W        W52245  20.632  10.923   8.042  0.0585 -0.0924 -0.2721
    1W        W52246  28.437  13.418   0.721  0.1804 -0.0542  0.1005
    1W        W52247  26.006  10.225   2.110  0.1290 -0.1570  0.0883
    1W        W52248   6.779   2.536   7.695 -0.0197 -0.2017 -0.0887
    1W        W52249  24.683  16.329   7.768 -0.1059 -0.1895 -0.2062
    1W        W52250  24.119  18.086   0.900  0.4848 -0.0688  0.0622
    1W        W52251  28.226   4.998   9.190  0.0499  0.0476 -0.1324
    1W        W52252  12.460   0.338   8.872  0.3052  0.1075 -0.0985
    1W        W52253  25.421   3.137   1.903  0.0621 -0.1425  0.2248
    1W        W52254   0.869  22.899   7.268 -0.0171 -0.1686 -0.0112
    1W        W52255  21.052  17.576   9.282  0.0366 -0.0833 -0.4105
    1W        W52256   8.103   1.461   2.744 -0.1862  0.0514  0.1039
    1W        W52257  24.414  28.094   9.380 -0.3910 -0.0305  0.2527
    1W        W52258  22.882  21.628   7.343 -0.1529 -0.0849  0.2052
    1W        W52259   9.154  24.948   1.222 -0.0530  0.2864 -0.1199
    1W        W52260  17.358  12.757   8.862 -0.2258  0.0062 -0.1287
    1W        W52261  11.336  27.680   2.176  0.2877 -0.0553 -0.0736
    1W        W52262  20.420   7.283   1.218  0.1887  0.0699 -0.2213
    1W        W52263   8.140  22.103   6.417  0.0640  0.0242  0.1630
    1W        W52264  28.274  27.404   2.467 -0.2806 -0.1995 -0.2615
    1W        W52265  17.388  22.866   6.836 -0.1495  0.0728 -0.2347
    1W        W52266  10.325  22.381   7.975 -0.0576  0.1522 -0.3396
    1W        W52267  28.764   0.861   0.283 -0.0519  0.0866  0.4883
    1W        W52268   1.514  20.966   6.989 -0.1247 -0.0742  0.3935
    1W        W52269   6.716  25.225   7.023 -0.1510  0.0095  0.3012
    1W        W52270  28.270   8.335   7.594  0.1214 -0.1467  0.0115
    1W        W52271   4.610   2.974   9.053  0.2527 -0.2218 -0.0872
    1W        W52272   0.417  18.129   6.552  0.3697 -0.0338  0.3823
    1W        W52273  19.140  25.805   7.491  0.1845 -0.4271 -0.4072
    1W        W52274   5.559   8.956   6.625  0.1425  0.1250 -0.0133
    1W        W52275  25.615   1.877   9.574 -0.3395  0.4478  0.0983
    1W        W52276  17.030  18.836   0.390 -0.1160 -0.3126  0.4062
    1W        W52277   9.281  21.209   9.195 -0.0536  0.0202 -0.3429
    1W        W52278  29.127   5.711   0.126 -0.1532 -0.1365 -0.0155
    1W        W52279  13.518  14.464   0.642 -0.1557  0.4283  0.0642
    1W        W52280   0.065  14.136   6.996  0.0466  0.0655  0.3295
    1W        W52281   9.836  17.665   1.347 -0.2279 -0.0862  0.0828
    1W        W52282  22.336   2.242   8.325 -0.0261 -0.1391 -0.2363
    1W        W52283  15.214  23.048   2.563  0.1891  0.2268 -0.0970
    1W        W52284   2.523   4.625   5.845 -0.0014 -0.0013 -0.1983
    1W        W52285  28.334  11.018   0.052 -0.0717  0.3633 -0.1576
    1W        W52286  27.194  23.472   7.382 -0.2605 -0.1189  0.1946
    1W        W52287  14.083  17.739   0.012 -0.1638 -0.1001  0.1708
    1W        W52288  28.839   3.605   1.907 -0.1985 -0.0176  0.1578
    1W        W52289  21.146   6.959   0.802  0.2523 -0.0788 -0.1044
    1W        W52290   1.227  27.031   7.555  0.2573 -0.0007  0.0106
    1W        W52291  14.633  25.544   9.433 -0.1386 -0.1736  0.0117
    1W        W52292  18.182  17.425   1.184  0.1696 -0.1137  0.1405
    1W        W52293  27.031   5.953   1.858  0.2673  0.4014 -0.2156
    1W        W52294  23.336   2.198   0.486 -0.0966  0.2291 -0.0043
    1W        W52295  15.377  22.565   2.446  0.0232  0.1627  0.0760
    1W        W52296  28.420  21.295   9.585 -0.2965 -0.0440  0.0914
    1W        W52297  25.120   6.907   1.070  0.2028  0.0282  0.1234
    1W        W52298  29.021  22.902   8.860  0.0120 -0.0524 -0.0980
    1W        W52299   4.107  27.224   2.649 -0.0171  0.6121  0.2975
    1W        W52300   3.320   1.611   7.682  0.0589  0.1182  0.1247
    1W        W52301  11.766   2.003   8.614  0.0198  0.0360  0.0076
    1W        W52302  27.198  26.171   2.384 -0.3091  0.1136 -0.0796
    1W        W52303   4.698   1.464   1.080  0.0968 -0.1068 -0.1239
    1W        W52304   7.357   0.072   9.431  0.1548  0.2196 -0.2203
    1W        W52305   4.732  26.067   8.847 -0.1781 -0.1284 -0.1686
    1W        W52306  23.896  10.235   1.949 -0.1642 -0.0079 -0.2670
    1W        W52307  12.294  16.206   1.207 -0.2480  0.0337  0.0769
    1W        W52308  23.841  13.186   5.557  0.2597  0.1048 -0.2463
    1W        W52309  15.820  14.000   0.543  0.3578  0.0940 -0.1123
    1W        W52310   8.305  23.702   0.130  0.1099  0.2418  0.0544
    1W        W52311  19.869   8.999   7.375  0.1568  0.1955  0.0722
    1W        W52312  24.786   5.930   7.150  0.1612  0.0873 -0.0481
    1W        W52313   2.372  26.673   0.522  0.3547 -0.1426 -0.1423
    1W        W52314   0.772  29.101   2.919  0.0775  0.1525  0.2101
    1W        W52315  28.045   1.433   0.298  0.3154  0.0636  0.0952
    1W        W52316  15.384  26.438   8.122 -0.3018 -0.1083 -0.2196
    1W        W52317   4.940  18.268   7.765 -0.1602 -0.0457  0.0835
    1W        W52318  28.121  13.150   1.747  0.1680  0.0484  0.0102
    1W        W52319  25.877  21.310   8.866  0.2040 -0.0011 -0.0299
    1W        W52320   0.795  25.191   1.281 -0.3515  0.2562 -0.3074
    1W        W52321  18.709  29.307   2.818 -0.2462 -0.3999 -0.2734
    1W        W52322   6.516  15.381   9.252  0.0066  0.0780 -0.0613
    1W        W52323  29.098   5.042   6.876 -0.1228  0.3150 -0.1224
    1W        W52324  12.239  11.833   8.506 -0.5665 -0.0948  0.0667
    1W        W52325  21.424  18.392   0.482  0.0211 -0.0240 -0.2491
    1W        W52326  10.976  26.646   9.663 -0.1740  0.1613 -0.0947
    1W        W52327   9.424  14.760   6.995 -0.0095 -0.1261  0.1327
    1W        W52328  20.970   7.194   7.918 -0.0371 -0.1375  0.0938
    1W        W52329  13.436  28.554   7.820 -0.0673 -0.1623  0.2004
    1W        W52330  18.955   3.785   8.488  0.1090  0.0581 -0.1555
    1W        W52331   0.379  16.860   2.793  0.2002  0.2371 -0.0490
    1W        W52332  23.096  16.821   7.123 -0.2905 -0.2016 -0.1313
    1W        W52333  19.087   3.150   2.973 -0.0101  0.1609 -0.1199
    1W        W52334   6.399  18.561   6.398 -0.0321  0.1102 -0.1386
    1W        W52335  22.486   7.148   7.492 -0.1662 -0.1104  0.4747
    1W        W52336  17.525  15.991   1.327  0.0289 -0.3077 -0.0283
    1W        W52337   8.275   0.943   2.921  0.0457 -0.3167 -0.2569
    1W        W52338  16.672   5.523   2.847  0.3774  0.0003  0.0142
    1W        W52339  25.147   2.075   0.100 -0.2884 -0.0719 -0.0382
    1W        W52340  24.828  16.206   0.662 -0.1671 -0.3798 -0.0958
    1W        W52341   1.967  25.181   0.241 -0.0480 -0.2116 -0.0087
    1W        W52342  12.829  27.119   3.072 -0.1603 -0.1334  0.4991
    1W        W52343  18.225  22.761   2.495 -0.0030 -0.2979 -0.1581
    1W        W52344   6.329   2.785   0.556 -0.1919 -0.3913  0.1973
    1W        W52345  27.969  25.778   9.212 -0.1146  0.1622  0.1216
    1W        W52346  14.627  27.999   9.024  0.0237  0.1629  0.1590
    1W        W52347   2.103  10.045   7.083 -0.0010  0.0095 -0.2218
    1W        W52348  23.445  15.546   7.790 -0.0229  0.1044  0.2541
    1W        W52349  22.260   0.553   6.739 -0.1833 -0.1392  0.2681
    1W        W52350  20.278  15.489   1.146  0.2353 -0.1545 -0.0349
    1W        W52351  14.598  16.058   2.127 -0.1889  0.0474  0.0308
    1W        W52352  19.192  11.102   0.430  0.0270  0.3206 -0.0789
    1W        W52353  26.548  24.217   6.953  0.1571 -0.0900 -0.1914
    1W        W52354   9.109  26.291   2.624 -0.0810 -0.3122 -0.0692
    1W        W52355   4.751  12.653   1.812 -0.0292  0.1049 -0.0591
    1W        W52356   5.432  12.268   1.174 -0.0943  0.1090 -0.1725
    1W        W52357  22.933   8.043   8.849 -0.0438 -0.1614  0.1329
    1W        W52358   6.178  12.397   2.971 -0.0346  0.0270  0.3331
    1W        W52359   4.037   2.322   6.869 -0.1285 -0.0946  0.4674
    1W        W52360  25.851  20.524   7.162 -0.1784  0.0707  0.2725
    1W        W52361   6.047  16.284   9.439  0.0032  0.0659 -0.1299
    1W        W52362  11.046  26.485   1.673 -0.2193  0.0545  0.0546
    1W        W52363  27.882  26.607   8.256  0.2589  0.0527  0.1149
    1W        W52364  15.310  21.788   9.650  0.0675  0.1383 -0.1117
    1W        W52365  19.746  22.489   0.274  0.0683 -0.2236 -0.0559
    1W        W52366   5.774   5.252   9.207 -0.1856 -0.0862  0.1782
    1W        W52367   5.222  28.225   7.374 -0.0377 -0.1490  0.0423
    1W        W52368  29.276   3.726   2.251 -0.0223 -0.0283 -0.3666
    1W        W52369   3.322   6.320   7.771 -0.2138  0.2637  0.0639
    1W        W52370  14.304  25.453   0.068 -0.0145 -0.1779  0.0221
    1W        W52371   9.159  26.193   7.781 -0.4271 -0.0680 -0.2849
    1W        W52372  11.844   4.258   8.215 -0.1729 -0.1939  0.0395
    1W        W52373  13.048   6.771   0.686 -0.2309 -0.0923 -0.2284
    1W        W52374   5.250  15.423   7.990  0.1756 -0.2372 -0.2543
    1W        W52375  14.848   0.797   0.645  0.0505 -0.0567  0.2290
    1W        W52376  27.792  22.693   2.215  0.0542  0.1067  0.1948
    1W        W52377   5.453  23.906   0.296  0.3435 -0.0155 -0.2264
    1W        W52378  23.566  12.108   7.443 -0.0435  0.0274  0.0313
    1W        W52379   7.442  23.057   8.872 -0.0643  0.0585 -0.1642
    1W        W52380  22.691  19.480   6.672 -0.2001 -0.0364  0.0027
    1W        W52381  24.395   6.768   8.581  0.2766  0.1400 -0.0305
    1W        W52382  16.043  13.008   1.032 -0.0504 -0.0065  0.0767
    1W        W52383  13.850  15.468   8.110  0.0511 -0.2259  0.0461
    1W        W52384  21.576   3.991   2.028  0.0648  0.5214 -0.0971
    1W        W52385  28.010  21.709   7.748  0.2914 -0.0018  0.1329
    1W        W52386   2.162  23.829   6.499  0.0387 -0.0969  0.5007
    1W        W52387   0.467  25.270   2.510 -0.0459  0.0409  0.3666
    1W        W52388   7.903   4.999   0.750  0.0870  0.2702 -0.1094
    1W        W52389  19.863   4.285   7.266  0.2671 -0.3178  0.1490
    1W        W52390  16.574  24.980   8.647  0.2586  0.1417 -0.1244
    1W        W52391  28.634  17.081   8.028 -0.2757  0.1969 -0.0123
    1W        W52392   6.658   4.725   0.461  0.0032 -0.0976  0.1179
    1W        W52393  23.808  19.183   7.238 -0.0090  0.0117  0.0525
    1W        W52394   0.646  28.105   7.356 -0.2369  0.0068 -0.1313
    1W        W52395   6.383   4.790   0.897 -0.0621 -0.0250  0.3128
    1W        W52396   2.016  11.129   7.319 -0.0648  0.0312 -0.0421
    1W        W52397   0.061  26.005   2.806 -0.2082 -0.3035  0.1246
    1W        W52398   2.306  22.432   0.807 -0.1947  0.2415 -0.1750
    1W        W52399  16.596  12.563   7.034  0.0609  0.1126  0.0144
    1W        W52400   1.124  18.119   7.243  0.1917 -0.4757  0.1752
    1W        W52401  18.300  10.660   1.533 -0.1344  0.0026 -0.2484
    1W        W52402   2.562  26.209   8.164  0.0716  0.0837 -0.2519
    1W        W52403   7.507   8.074   1.809 -0.0466  0.0192 -0.0855
    1W        W52404  24.159  27.334   9.026  0.3519  0.0404  0.3112
    1W        W52405  24.541  17.373   0.578 -0.1589  0.0597  0.2320
    1W        W52406  15.158  20.297   0.259  0.0902 -0.2883 -0.3164
    1W        W52407  15.550  13.602   0.813  0.0446  0.1768  0.0640
    1W        W52408  26.433  20.954   1.323  0.1812 -0.1205 -0.0963
    1W        W52409  11.569   3.334   9.311  0.1919 -0.0909 -0.1460
    1W        W52410  24.260  17.867   7.794 -0.2485  0.2689 -0.0094
    1W        W52411  18.457  14.710   8.311 -0.1280 -0.0550 -0.0677
    1W        W52412  23.389  24.995   0.845 -0.0471  0.2232 -0.2792
    1W        W52413  27.807  27.538   2.887 -0.0092 -0.0378  0.0251
    1W        W52414  28.884   4.132   9.091  0.3629 -0.0187 -0.0250
    1W        W52415  26.212  22.399   9.590  0.0230  0.1651 -0.0303
    1W        W52416  18.346  28.135   8.420 -0.0278  0.2430 -0.2492
    1W        W52417   4.837   1.754   0.652 -0.1863 -0.1997 -0.3786
    1W        W52418  21.358  25.492   8.074 -0.0581  0.1842  0.0336
    1W        W52419  12.507   8.167   7.676  0.0447 -0.0946  0.3021
    1W        W52420   9.319  26.489   7.020  0.4794 -0.0891 -0.0408
    1W        W52421   2.695   6.921   1.619  0.0209 -0.2526  0.0782
    1W        W52422  23.497  15.163   0.818 -0.1904 -0.0371 -0.2120
    1W        W52423  13.202   6.897   3.094  0.0812  0.0036 -0.1242
    1W        W52424  28.152   5.932   9.574 -0.0200  0.2256  0.4697
    1W        W52425  24.766   6.977   9.364 -0.1035 -0.0762 -0.1382
    1W        W52426  21.778   9.708   1.725 -0.3185  0.0843 -0.2203
    1W        W52427  18.807  14.785   9.540 -0.0155 -0.0012  0.0219
    1W        W52428  21.068  27.585   0.323 -0.2768  0.0208 -0.0419
    1W        W52429  26.448  22.706   7.367  0.1084  0.2134 -0.0070
    1W        W52430  21.812  13.366   7.059  0.0740 -0.1383 -0.1285
    1W        W52431  10.479  13.339   9.281  0.3705  0.1033 -0.0096
    1W        W52432  14.971  16.105   8.962 -0.0433  0.5682 -0.0590
    1W        W52433   9.196   8.063   1.562  0.0311  0.0748 -0.2160
    1W        W52434   4.922  23.448   8.204 -0.1685 -0.0797  0.0128
    1W        W52435  10.620   0.265   8.669  0.0052  0.2954 -0.3163
    1W        W52436   3.576  19.320   1.714 -0.3894  0.1033 -0.0407
    1W        W52437  17.213  17.383   8.138 -0.1315 -0.0583  0.1575
    1W        W52438  14.473  13.980   1.823 -0.0501  0.1684 -0.0362
    1W        W52439   0.884  13.781   9.554 -0.1872 -0.1805 -0.2502
    1W        W52440   6.608  22.345   0.921  0.0624 -0.1953 -0.1996
    1W        W52441  15.422   7.660   2.423 -0.0560  0.0148 -0.0746
    1W        W52442  21.200  27.143   0.628  0.0254 -0.0731  0.2578
    1W        W52443  26.483  15.385   6.897 -0.2807  0.2156  0.2441
    1W        W52444  25.044  27.291   6.343 -0.2890  0.1267 -0.0461
    1W        W52445  25.984   1.875   1.328  0.2290  0.0316 -0.0535
    1W        W52446   6.145  16.233   2.500 -0.0653 -0.2055  0.1531
    1W        W52447   6.854  13.324   7.069 -0.1303 -0.1616 -0.1436
    1W        W52448  22.724  25.417   2.484  0.2886 -0.0332  0.2729
    1W        W52449  25.918  22.588   9.042 -0.2324  0.0304 -0.2339
    1W        W52450  25.292  18.132   0.284 -0.2300 -0.0023 -0.0050
    1W        W52451  14.196   5.134   7.256  0.2549 -0.0066 -0.3482
    1W        W52452   0.762  18.604   2.108  0.2434 -0.1162  0.0351
    1W        W52453  24.732  22.624   0.907  0.0127  0.1666 -0.3889
    1W        W52454  22.972  18.799   8.745  0.2407  0.2620  0.2229
    1W        W52455   4.141  25.544   0.409 -0.0526  0.0142 -0.0207
    1W        W52456  20.633  16.335   0.632 -0.0994  0.1732  0.0969
    1W        W52457  29.295  10.740   1.886 -0.0925  0.1017  0.3587
    1W        W52458  28.332  23.804   6.896 -0.1587  0.2602  0.0639
    1W        W52459   9.039  13.657   2.053  0.1496 -0.1304 -0.1220
    1W        W52460  17.726  12.456   0.687 -0.0693  0.0466 -0.2135
    1W        W52461  18.207  26.459   9.376 -0.1093 -0.0121 -0.0093
    1W        W52462  27.467  27.195   7.583  0.0691  0.0471 -0.1797
    1W        W52463  28.097  24.319   3.069  0.2997  0.2164  0.2066
    1W        W52464   6.450  14.418   9.516 -0.1102 -0.2814  0.0905
    1W        W52465  23.017   7.515   8.960  0.1270 -0.1735  0.1489
    1W        W52466   5.831  13.818   0.007 -0.0901 -0.2155  0.1261
    1W        W52467  24.416  28.146   7.400  0.3822  0.3129 -0.0822
    1W        W52468  10.495  12.406   8.336  0.0160 -0.2560  0.1821
    1W        W52469  16.734  28.878   8.707 -0.2035 -0.0336 -0.0247
    1W        W52470  16.291   4.502   6.778  0.1088 -0.1399  0.1038
    1W        W52471  20.441  23.001   7.012  0.1778  0.1217 -0.1189
    1W        W52472  28.779   1.747   6.727 -0.0533 -0.3015  0.0259
    1W        W52473  15.467  20.232   0.682  0.2448 -0.0380 -0.1099
    1W        W52474  13.239   9.563   1.413 -0.0395 -0.1343 -0.1513
    1W        W52475   8.336  27.830   7.808  0.0791  0.0339 -0.0881
    1W        W52476   3.726  24.561   6.146 -0.0834 -0.2008  0.0974
    1W        W52477   1.645   3.054   2.319 -0.0211  0.0295  0.2274
    1W        W52478   4.357   1.158   6.849  0.0290  0.2328  0.1471
    1W        W52479   1.839   0.317   8.719  0.0765 -0.0193  0.3377
    1W        W52480  23.911  13.625   8.905  0.4096 -0.1276  0.1012
    1W        W52481   9.109  18.903   9.344 -0.1506 -0.0466 -0.0353
    1W        W52482  11.986  13.444   9.363  0.4060  0.0630  0.1512
    1W        W52483  28.718   8.454   8.313  0.2372 -0.0288 -0.0872
    1W        W52484  27.033  22.296   1.325  0.1396 -0.1187 -0.4113
    1W        W52485  27.049   5.948   7.106 -0.0581  0.1286 -0.0564
    1W        W52486   7.438  19.428   0.749  0.0914  0.0634 -0.1731
    1W        W52487  17.556  27.382   0.810  0.0558 -0.2274  0.2133
    1W        W52488  28.489   0.347   6.843  0.2394 -0.1848 -0.0332
    1W        W52489  18.144   7.252   1.185  0.0602  0.1184 -0.4789
    1W        W52490  25.120  27.117   9.130  0.2937 -0.0816 -0.0923
    1W        W52491  25.419   4.922   2.037  0.1020  0.2859  0.1691
    1W        W52492   9.657  22.706   8.759  0.1373 -0.0807 -0.1619
    1W        W52493   0.757  26.802   0.294  0.4153  0.0820  0.3020
    1W        W52494  21.490  25.774   1.340 -0.0509  0.2504 -0.0393
    1W        W52495  15.753  26.906   2.044 -0.0150  0.1430  0.1678
    1W        W52496  20.614   2.444   9.416 -0.0355 -0.1672  0.1635
    1W        W52497   5.773  16.322   6.491 -0.0183  0.0333 -0.1821
    1W        W52498   6.354   1.839   3.161  0.0004 -0.1507  0.1940
    1W        W52499   3.541   1.452   9.199  0.3474  0.0652 -0.0698
    1W        W52500  12.469  18.920   1.850 -0.1038 -0.1465  0.1195
    1W        W52501   9.978   5.066   2.176 -0.1224 -0.0692  0.0719
    1W        W52502  10.785  15.731   8.688  0.2213  0.2946 -0.0853
    1W        W52503  11.961  27.466   0.117 -0.0249  0.0427  0.3228
    1W        W52504   7.987  21.767   8.589  0.0918  0.1178 -0.2495
    1W        W52505   6.683   6.365   8.785 -0.2319  0.0787 -0.0830
    1W        W52506  28.253  14.437   0.561  0.1652 -0.1382  0.3187
    1W        W52507  24.068  17.698   0.157 -0.1311  0.1683  0.0793
    1W        W52508  10.509   1.923   9.216 -0.0607  0.2208 -0.0827
    1W        W52509   1.623  27.727   0.012 -0.0598  0.2569 -0.0700
    1W        W52510  24.857  26.976   2.053 -0.2124 -0.3267 -0.6225
    1W        W52511  23.370  17.932   2.070 -0.2018 -0.1407 -0.3620
    1W        W52512   6.312   6.962   1.316  0.1535 -0.1652  0.1389
    1W        W52513  10.699   0.764   2.393 -0.1588  0.0046  0.0999
    1W        W52514   3.872  26.586   2.197  0.1233 -0.0958 -0.3117
    1W        W52515   1.047  18.281   0.949 -0.1936 -0.0269  0.2548
    1W        W52516  21.484   4.704   0.818 -0.1719  0.1280  0.1249
    1W        W52517  21.023  17.250   1.103  0.2628 -0.2615  0.4373
    1W        W52518   1.167   6.853   8.676  0.3003 -0.2022  0.2079
    1W        W52519  23.864  21.993   8.685 -0.0166  0.0395  0.3286
    1W        W52520  23.040  23.754   3.390  0.0592  0.0921 -0.3850
    1W        W52521   7.670  17.999   1.187 -0.1145 -0.3369  0.3393
    1W        W52522  10.537  23.917   7.973 -0.1109 -0.0285 -0.0886
    1W        W52523  11.762  17.476   0.600 -0.0418 -0.0662 -0.1061
    1W        W52524  25.218  21.886   9.210 -0.3762 -0.2214  0.2195
    1W        W52525  28.021   8.330   6.768 -0.1061 -0.0632 -0.2923
    1W        W52526  25.265   0.361   8.655  0.0719  0.1947  0.0541
    1W        W52527  15.181  13.163   7.964  0.1853  0.1901  0.1281
    1W        W52528  17.570   4.366   0.208  0.0431 -0.0549 -0.1483
    1W        W52529  20.782   9.547   2.580  0.0517 -0.1864 -0.2023
    1W        W52530  11.071   4.992   9.498  0.2292  0.2069 -0.0590
    1W        W52531  22.227   5.708   1.793 -0.0252  0.3580 -0.0144
    1W        W52532  25.646   2.478   8.312 -0.0064  0.1645  0.0863
    1W        W52533  28.742  21.586   1.396 -0.3415 -0.4905  0.1250
    1W        W52534   5.258  17.468   7.169  0.1256  0.1996 -0.0498
    1W        W52535  27.756  18.071   2.233 -0.1574  0.0873  0.0105
    1W        W52536  15.468  12.474   2.544 -0.2188 -0.0091 -0.0527
    1W        W52537   4.143  11.424   2.469  0.1067  0.2218 -0.0386
    1W        W52538  28.813   7.498   0.265  0.0277 -0.0181 -0.0652
    1W        W52539  20.772   4.968   8.567 -0.2820 -0.1450 -0.0064
    1W        W52540   3.638   0.535   0.689  0.1469  0.1500  0.1433
    1W        W52541  19.543   6.683   7.563 -0.1986  0.0635  0.1384
    1W        W52542  19.917  16.001   7.860 -0.0491 -0.0503 -0.2643
    1W        W52543   7.235   9.792   0.920 -0.0789  0.3402  0.5972
    1W        W52544  23.517  11.636   7.633 -0.0791  0.0696  0.1199
    1W        W52545  26.961  27.307   7.596  0.2576 -0.0950  0.2809
    1W        W52546   5.233   1.530   7.231  0.4415 -0.1335  0.2697
    1W        W52547  27.957  18.742   9.300  0.3831 -0.0614 -0.4132
    1W        W52548  12.146   1.671   8.421 -0.1628 -0.1856  0.1325
    1W        W52549  18.507   4.685   2.877  0.1126 -0.3208 -0.1196
    1W        W52550  22.557   4.262   0.576  0.2544 -0.0618 -0.1811
    1W        W52551  26.150  19.378   0.436 -0.6154  0.0211 -0.1741
    1W        W52552  21.021  13.009   0.430  0.0652  0.1585  0.1284
    1W        W52553   2.430  22.483   6.375  0.1561 -0.1732 -0.2251
    1W        W52554   5.443  16.185   9.463 -0.2064  0.0288  0.0306
    1W        W52555  11.855   7.939   2.670 -0.0322  0.2187 -0.1864
    1W        W52556  25.899  22.923   0.584  0.0893 -0.0109 -0.1483
    1W        W52557   7.637   4.025   0.094 -0.0546 -0.0878  0.0605
    1W        W52558  26.905   5.345   5.709 -0.2742 -0.1132 -0.0090
    1W        W52559  11.894  23.957   3.218  0.2047  0.2729 -0.2427
    1W        W52560   7.325  21.484   6.453  0.0467  0.0775 -0.1551
    1W        W52561   4.460   7.219   0.770  0.2104  0.1433 -0.0061
    1W        W52562  11.297  17.410   7.453 -0.1413  0.2294 -0.1268
    1W        W52563   0.514  21.413   7.160 -0.0223  0.0295  0.3262
    1W        W52564  24.522   7.730   9.507  0.1476  0.1256  0.3121
    1W        W52565  23.303  14.277   7.332 -0.2038 -0.2020 -0.0933
    1W        W52566  11.644  25.903   1.077 -0.2345  0.3852 -0.0408
    1W        W52567  10.863   6.237   7.390 -0.0525 -0.1120 -0.1001
    1W        W52568  15.866  27.052   8.816 -0.0824  0.0467  0.1932
    1W        W52569   4.348  25.373   1.846 -0.0869  0.0677  0.2104
    1W        W52570  28.426   2.477   1.786 -0.0441 -0.4878 -0.1348
    1W        W52571  26.804  27.960   8.893 -0.0783  0.1078 -0.0085
    1W        W52572  22.857  19.616   9.636 -0.0970  0.2066 -0.0043
    1W        W52573  18.626  19.639   8.031  0.2494  0.1189  0.4736
    1W        W52574  15.659  17.467   6.910 -0.0118 -0.2959  0.0182
    1W        W52575   3.326  22.037   9.143 -0.1964 -0.0167 -0.2011
    1W        W52576   5.071  25.835   0.795 -0.0736  0.0287 -0.2966
    1W        W52577  14.858   7.055   0.146 -0.1564  0.0712  0.1960
    1W        W52578  21.732  19.209   7.086 -0.1866 -0.1623 -0.2121
    1W        W52579   2.031  28.246   1.483 -0.0963 -0.1933 -0.6310
    1W        W52580  23.500   4.447   6.305  0.1124  0.2585  0.2091
    1W        W52581   2.062   9.423   8.948 -0.1103 -0.0482 -0.2570
    1W        W52582   5.991   2.599   7.938 -0.0771  0.1660 -0.3110
    1W        W52583  18.553  12.162   1.197 -0.1202 -0.3115  0.2848
    1W        W52584  18.156  19.942   7.922 -0.2351  0.3776 -0.2088
    1W        W52585   1.315  11.454   9.456 -0.1973 -0.0787 -0.5106
    1W        W52586  18.740  17.193   8.032 -0.0083 -0.0346  0.0589
    1W        W52587  24.007   0.272   0.948  0.0485 -0.1759 -0.1265
    1W        W52588  20.195   0.531   9.180 -0.0821  0.3408  0.1762
    1W        W52589  26.792  12.673   0.747  0.0469 -0.1585  0.5651
    1W        W52590   1.379   0.458   1.798  0.1100 -0.0258 -0.1774
    1W        W52591  26.881  18.016   0.750  0.2282  0.0547 -0.0219
    1W        W52592   7.091   9.036   8.952 -0.1221 -0.0438 -0.2878
    1W        W52593   3.303   8.084   2.452 -0.0727 -0.3213 -0.1475
    1W        W52594   0.311  22.737   8.011  0.1406 -0.0815  0.0505
    1W        W52595  11.303   1.417   0.646  0.0650  0.1294 -0.1325
    1W        W52596  25.947   9.695   9.039  0.0015  0.0805 -0.0007
    1W        W52597  29.045  13.949   1.241 -0.0232  0.5068 -0.0754
    1W        W52598   4.865  10.889   9.493  0.0340 -0.2525  0.2137
    1W        W52599   1.831  28.684   1.392 -0.2691 -0.1413 -0.1495
    1W        W52600  24.833   5.803   3.213 -0.0157  0.3062 -0.3576
    1W        W52601  13.832  22.879   8.850  0.0270  0.2790 -0.1126
    1W        W52602  22.625  10.797   0.163  0.2420  0.0509  0.0005
    1W        W52603   7.206  19.807   0.458  0.2484 -0.0180 -0.0668
    1W        W52604  17.769  22.075   2.145  0.1528 -0.2405  0.0167
    1W        W52605  28.276   1.617   8.748 -0.2624  0.1490  0.0608
    1W        W52606  26.962  19.262   7.166  0.2903 -0.1892 -0.1626
    1W        W52607   3.249  17.325   7.487  0.1008  0.0972 -0.0759
    1W        W52608  21.588  12.104   2.154 -0.2453 -0.0642  0.1060
    1W        W52609  18.831  17.446   1.355 -0.1202 -0.0336 -0.1531
    1W        W52610   3.385   0.137   8.114 -0.1779 -0.2791  0.5158
    1W        W52611   3.685  13.082   2.272  0.3061 -0.2399 -0.1823
    1W        W52612   8.892  28.443   7.582 -0.0551  0.3500  0.1540
    1W        W52613  13.921   2.996   1.318 -0.4338  0.2120 -0.1279
    1W        W52614   2.402  24.777   7.142 -0.3098  0.0288 -0.2627
    1W        W52615  25.675   8.445   8.026  0.2568  0.0289  0.0012
    1W        W52616   0.790  19.605   6.249  0.0927 -0.2572  0.1341
    1W        W52617  25.005  19.511   9.205 -0.2104  0.1408  0.3595
    1W        W52618  21.530   0.404   7.354  0.0487  0.1408 -0.1127
    1W        W52619  14.580   2.736   8.576  0.1677  0.0301 -0.1277
    1W        W52620  14.667  10.698   0.367  0.1263 -0.3404 -0.0517
    1W        W52621  27.917   6.160   1.012 -0.2760 -0.2359  0.1351
    1W        W52622   2.918  27.298   6.324  0.3628  0.1737 -0.0917
    1W        W52623   5.699   0.141   1.261 -0.1712  0.4667  0.0066
    1W        W52624  21.002  21.936   1.830 -0.2041 -0.0629  0.3075
    1W        W52625   1.594   2.807   0.221  0.1132 -0.0251 -0.1154
    1W        W52626  23.953   2.270   7.892 -0.1376 -0.2326  0.0812
    1W        W52627  21.007  11.788   0.275  0.4345  0.0692  0.0990
    1W        W52628  21.358  17.801   9.613  0.1172 -0.2120  0.1142
    1W        W52629   8.507  13.860   2.327  0.3421  0.0999 -0.0145
    1W        W52630  25.928  21.118   2.610 -0.1618  0.0788  0.1903
    1W        W52631   5.662   4.186   7.238 -0.1696 -0.0168 -0.1590
    1W        W52632   1.033   4.652   0.349 -0.3210 -0.3038  0.1396
    1W        W52633  28.526  14.781   0.808  0.4068 -0.0670  0.1155
    1W        W52634   2.363   8.173   7.433 -0.1003  0.2197 -0.0905
    1W        W52635   4.495   6.766   7.000 -0.1120  0.2604 -0.3358
    1W        W52636   8.005   2.215   1.191  0.0053  0.2345 -0.0540
    1W        W52637  17.343  11.660   8.286 -0.3274  0.1561  0.1404
    1W        W52638   5.640  19.538   9.265  0.0467  0.2165  0.1378
    1W        W52639   6.129   7.308   0.300 -0.1694  0.2114  0.1254
    1W        W52640   7.110  26.171   7.861 -0.0065 -0.1516 -0.0885
    1W        W52641   3.196   4.262   8.424 -0.3537  0.1073  0.0997
    1W        W52642  27.840  15.318   0.425  0.0911 -0.0589  0.0094
    1W        W52643   1.342   3.634   0.655 -0.3434 -0.1179 -0.2828
    1W        W52644  15.569   3.539   1.433 -0.0849  0.3347 -0.2242
    1W        W52645   3.083   1.739   6.706  0.0906 -0.4795  0.2351
    1W        W52646  29.333  19.067   1.065 -0.1513 -0.1100  0.1172
    1W        W52647  18.597   3.349   0.914  0.0017 -0.0031 -0.1047
    1W        W52648  27.763  28.069   0.751  0.0109 -0.0654 -0.0258
    1W        W52649   6.603  28.549   0.590 -0.0334 -0.1498 -0.1158
    1W        W52650  13.237  14.606   1.433 -0.2465 -0.3295  0.2956
    1W        W52651  10.118   0.958   7.864  0.0086 -0.4509  0.2751
    1W        W52652   0.213  19.477   2.125 -0.1865 -0.0032 -0.0696
    1W        W52653  22.290  17.902   1.193  0.1766 -0.0591 -0.1380
    1W        W52654  23.049  16.593   8.415  0.2274 -0.3841  0.0101
    1W        W52655  22.401   2.891   3.132  0.1505 -0.0349  0.0988
    1W        W52656   8.239  10.899   1.196 -0.2819 -0.0741 -0.0610
    1W        W52657  15.232  24.207   8.882 -0.0123  0.0770 -0.1162
    1W        W52658   1.186   5.442   6.934 -0.0263  0.0133 -0.1455
    1W        W52659  18.845  27.604   3.357 -0.2494  0.1900  0.4484
    1W        W52660  14.575  24.037   9.180  0.3924  0.3214 -0.1699
    1W        W52661   4.126   0.877   2.536  0.1396 -0.0956  0.1483
    1W        W52662  15.084  13.812   2.674  0.0794  0.0272 -0.0889
    1W        W52663  17.163   7.969   2.672  0.0593  0.3026 -0.3468
    1W        W52664  16.973   4.517   7.912  0.2594  0.2039  0.1028
    1W        W52665   6.722  28.243   2.425 -0.2639 -0.1438 -0.1400
    1W        W52666  26.339   9.553   9.297  0.3700  0.3786 -0.0211
    1W        W52667   5.136   0.920   9.149 -0.0648  0.2429  0.0582
    1W        W52668  12.158  12.683   8.740  0.0923  0.2454 -0.2966
    1W        W52669  14.053   4.624   8.059  0.0016 -0.0992 -0.0901
    1W        W52670   5.090  28.269   8.691  0.1831 -0.1511 -0.1996
    1W        W52671  25.083   6.586   9.158 -0.0426  0.1292 -0.1800
    1W        W52672  27.512   7.953   7.375  0.2115  0.3048 -0.1721
    1W        W52673  28.093  19.439   1.544  0.1671 -0.4008  0.0979
    1W        W52674  12.298  26.430   9.156 -0.2135 -0.1372 -0.0871
    1W        W52675   5.276  26.017   9.121 -0.0736  0.0527  0.2704
    1W        W52676   5.838   9.150   7.146 -0.0667  0.0793 -0.3570
    1W        W52677  20.713  29.356   1.763 -0.1069  0.0505  0.0170
    1W        W52678  11.180  13.764   8.124  0.1169 -0.3447  0.0203
    1W        W52679   3.946   1.065   7.128  0.4245  0.3240 -0.1159
    1W        W52680  28.960  12.756   6.058 -0.0265  0.2702  0.0238
    1W        W52681   1.691  25.209   8.967  0.1245  0.2561 -0.0181
    1W        W52682   9.721   4.382   1.009  0.0096  0.1914  0.0124
    1W        W52683   1.522  12.630   0.308 -0.1073 -0.1518  0.0817
    1W        W52684  17.669  11.554   7.915  0.1108  0.1299  0.2340
    1W        W52685   1.337  13.255   1.551  0.0774 -0.0099 -0.0394
    1W        W52686  18.124  20.442   8.760  0.0449 -0.0088 -0.1021
    1W        W52687   1.403  23.746   0.303  0.1267  0.0138  0.2073
    1W        W52688  24.099   7.729   2.125 -0.0972 -0.1838  0.2543
    1W        W52689  22.224  24.753   8.925 -0.3103 -0.0743  0.1790
    1W        W52690  16.243   1.901   7.963 -0.1131  0.0163  0.1334
    1W        W52691   0.647  23.867   2.744  0.1645 -0.2189  0.0728
    1W        W52692  22.464   5.650   7.493  0.1500  0.0465 -0.1273
    1W        W52693  23.182  22.820   8.900 -0.3491  0.0974  0.2122
    1W        W52694  12.225  28.070   2.992  0.1795 -0.0875  0.0616
    1W        W52695  16.186   6.716   9.079  0.0456 -0.0230  0.0280
    1W        W52696  15.589  20.660   7.236 -0.1482  0.0273  0.0407
    1W        W52697   8.587  21.080   8.578 -0.0757  0.1347  0.1913
    1W        W52698  11.723  13.438   8.959  0.0315  0.5589 -0.0628
    1W        W52699  19.899  25.123   9.409  0.0229  0.1870 -0.1439
    1W        W52700  27.735   6.823   8.565 -0.0065 -0.4838  0.0351
    1W        W52701  13.844  25.839   1.740  0.0115  0.0152 -0.0483
    1W        W52702  11.866  10.936   1.497 -0.0080  0.1102 -0.0095
    1W        W52703  22.248   5.261   8.931  0.1316  0.2300 -0.2120
    1W        W52704   1.385  14.400   1.117 -0.1552  0.0367 -0.0313
    1W        W52705   7.591   3.116   8.794  0.0908 -0.0802  0.1287
    1W        W52706   8.971   2.584   8.263 -0.1078  0.0332  0.0531
    1W        W52707  11.141  25.138   2.365  0.0542  0.1854  0.0081
    1W        W52708  23.580  19.599   8.002  0.3314 -0.1524 -0.1149
    1W        W52709  18.977   1.361   7.996  0.0526 -0.0276 -0.0571
    1W        W52710  17.993   8.005   2.676  0.0996 -0.0193  0.0430
    1W        W52711  20.973   5.553   6.921 -0.0172 -0.0882 -0.1129
    1W        W52712  10.079  19.382   0.856  0.0949  0.1345  0.1832
    1W        W52713  27.446   7.286   8.730  0.0965 -0.0492 -0.0227
    1W        W52714  26.333  14.912   6.973 -0.1299  0.0165  0.0843
    1W        W52715  16.754  23.750   0.932 -0.2254 -0.0419  0.3260
    1W        W52716  20.115   1.420   2.083  0.0720 -0.0889  0.0628
    1W        W52717  27.380   9.841   0.740  0.0276 -0.0540  0.0249
    1W        W52718  22.034  10.548   1.918  0.0099 -0.0371  0.1038
    1W        W52719   7.889  15.380   2.161  0.0880 -0.1870  0.1830
    1W        W52720  23.492  14.971   8.535 -0.0142 -0.0546 -0.2051
    1W        W52721   3.579   7.689   9.120  0.0695 -0.0376  0.1205
    1W        W52722   5.228  23.556   9.104 -0.0163  0.2063  0.0239
    1W        W52723  11.792  25.058   2.763 -0.2475  0.2722  0.1948
    1W        W52724  24.660  28.435   8.188  0.1845  0.3363 -0.0854
    1W        W52725  27.951  19.696   1.982 -0.0033 -0.2668 -0.0664
    1W        W52726  16.545   8.899   2.293 -0.1986  0.1201  0.0503
    1W        W52727   7.837   1.443   0.568  0.1888 -0.0734  0.0451
    1W        W52728   3.304  23.175   8.448 -0.2123  0.1096 -0.0050
    1W        W52729   3.712   4.721   1.463  0.1466  0.0465  0.1436
    1W        W52730   0.248  22.565   2.597 -0.0235 -0.1761  0.0356
    1W        W52731  27.133  16.269   1.908 -0.0286 -0.0162  0.2674
    1W        W52732  11.753  29.256   2.697  0.0218  0.2587  0.2891
    1W        W52733   3.118   6.066   1.720  0.0254 -0.0861 -0.2336
    1W        W52734   6.640  17.605   0.975 -0.0669 -0.3479  0.0576
    1W        W52735   8.984  16.224   0.777  0.3865 -0.1470 -0.1239
    1W        W52736  24.440  18.483   2.430 -0.0769  0.0380 -0.2105
    1W        W52737  15.163  22.079   8.184  0.3815 -0.1715  0.0241
    1W        W52738   5.408  10.514   6.233  0.0396 -0.0409 -0.1576
    1W        W52739  15.924   2.891   3.081  0.1735  0.0951 -0.2288
    1W        W52740  24.804  13.149   6.987  0.0607 -0.0418  0.1315
    1W        W52741  17.562   7.720   0.157 -0.0543  0.0849  0.0092
    1W        W52742  21.140  27.907   1.406  0.1879 -0.1175  0.0160
    1W        W52743   2.972   1.743   7.980 -0.1290  0.0614 -0.1337
    1W        W52744  15.708   2.012   2.765 -0.0670  0.1566 -0.0227
    1W        W52745   2.725  12.496   1.725  0.1003 -0.0296  0.4455
    1W        W52746  24.574  23.459   9.256  0.1072  0.0324 -0.0935
    1W        W52747  20.103  12.030   2.030 -0.2178 -0.2442 -0.1466
    1W        W52748   5.099   0.768   0.318  0.0426 -0.1540 -0.0226
    1W        W52749  22.667  20.567   0.826  0.0906  0.0955 -0.0670
    1W        W52750   2.351  26.595   0.002 -0.1320 -0.1127  0.3419
    1W        W52751  27.286  28.073   7.837  0.3678  0.2130 -0.2649
    1W        W52752  19.081  25.787   0.496  0.1214  0.2676  0.0648
    1W        W52753  18.891  14.087   9.201 -0.1191 -0.4042  0.0299
    1W        W52754   4.449   1.628   8.352 -0.0365  0.1719 -0.2654
    1W        W52755  21.975   4.395   7.919 -0.2041  0.1122 -0.0553
    1W        W52756  23.839  27.522   0.461  0.0079 -0.0896  0.0488
    1W        W52757  20.703  12.450   8.642 -0.0281  0.1364 -0.1772
    1W        W52758  12.543  20.548   7.311  0.0186  0.0937  0.1018
    1W        W52759  22.498  15.076   7.630 -0.2425 -0.0154 -0.1585
    1W        W52760  27.969   0.470   0.383  0.0715 -0.0512 -0.3560
    1W        W52761  21.195  22.196   1.434 -0.2056  0.0145  0.2169
    1W        W52762   2.748  28.327   0.223 -0.2830  0.2096  0.1051
    1W        W52763  16.641  13.936   7.114 -0.0050  0.5684  0.0280
    1W        W52764  21.822  22.501   8.713 -0.5263 -0.0379  0.0832
    1W        W52765   8.260  14.267   0.048  0.1170 -0.0041 -0.0938
    1W        W52766  28.461  13.382   8.596 -0.2488  0.1316  0.0459
    1W        W52767  24.401  10.336   7.365  0.1122  0.2337 -0.0057
    1W        W52768   0.124  28.533   2.075 -0.2387 -0.1526  0.0424
    1W        W52769  21.714  26.296   1.942  0.2771 -0.0634 -0.1208
    1W        W52770  25.649  17.460   1.869  0.1185 -0.0019 -0.1419
    1W        W52771  18.374  21.911   0.984 -0.3821  0.1515 -0.1984
    1W        W52772   0.897   1.108   1.410 -0.0839  0.0583 -0.1659
    1W        W52773  17.595  24.472   0.277  0.0158 -0.0704 -0.2237
    1W        W52774  24.359  26.833   9.106 -0.2924  0.0835  0.0915
    1W        W52775   6.444  18.148   6.093 -0.1969 -0.1405  0.1362
    1W        W52776  28.837  23.249   7.482  0.2824  0.0325 -0.0459
    1W        W52777   4.798  26.684   8.707  0.0867  0.1275  0.0161
    1W        W52778   8.174  26.632   9.651 -0.0741  0.0532 -0.2020
    1W        W52779   5.269  16.663   9.682 -0.0676 -0.1113 -0.4545
    1W        W52780  11.188   2.469   3.952  0.3358 -0.2443  0.3808
    1W        W52781  24.157  17.586   9.366 -0.0303 -0.4561 -0.1499
    1W        W52782  11.052   2.207   0.041  0.0419 -0.1913  0.0565
    1W        W52783   2.629  19.549   1.813 -0.1646  0.0217 -0.1576
    1W        W52784  15.197  10.357   9.443  0.2113  0.1116 -0.1091
    1W        W52785   8.378  10.703   0.753  0.2983  0.1222  0.0106
    1W        W52786  29.215  23.816   2.051 -0.0570  0.1066 -0.0987
    1W        W52787   8.264  26.071   8.808 -0.1298  0.0106 -0.2009
    1W        W52788   0.272   3.669   9.380  0.0269 -0.0543 -0.2659
    1W        W52789  22.196  10.191   6.374 -0.2377  0.1281 -0.1732
    1W        W52790  28.355  12.325   3.042  0.0492  0.1812 -0.0497
    1W        W52791   4.497   6.611   7.798 -0.0864 -0.1713  0.1089
    1W        W52792   8.087  23.385   6.593 -0.0104 -0.0901  0.3050
    1W        W52793  22.721  15.799   1.464  0.0700 -0.0025  0.0514
    1W        W52794  25.717  18.667   0.066 -0.1082 -0.2576 -0.4020
    1W        W52795   6.098  16.584   8.187 -0.1325  0.2064  0.1642
    1W        W52796  20.594  23.860   0.988 -0.1901 -0.2995  0.1978
    1W        W52797   3.707  21.663   2.042 -0.4236 -0.3263 -0.0147
    1W        W52798   8.345  13.396   1.563 -0.2011 -0.0655  0.2645
    1W        W52799  16.366  26.739   1.092  0.0501 -0.1013  0.0559
    1W        W52800  10.425  22.846   1.852  0.2715  0.0926  0.0172
    1W        W52801  19.812  25.769   2.491  0.1258  0.2436  0.0227
    1W        W52802  25.161  13.830   5.925 -0.2492  0.0555  0.2308
    1W        W52803   5.837  19.975   7.817  0.1041  0.2361  0.0471
    1W        W52804   4.327   0.602   8.323 -0.0210  0.2206  0.2387
    1W        W52805  10.951  24.885   9.560 -0.1078  0.0626  0.0648
    1W        W52806  28.545  14.167   6.537 -0.1540 -0.0636 -0.2190
    1W        W52807  21.100  19.091   2.442 -0.4511 -0.0687  0.1350
    1W        W52808  26.322  17.620   1.059 -0.3318  0.0222  0.0858
    1W        W52809  21.572  24.036   6.323 -0.2682  0.1420  0.1934
    1W        W52810   5.305   5.689   9.187  0.1974  0.0035  0.0088
    1W        W52811  27.867  14.162   8.403 -0.4713 -0.0446  0.1968
    1W        W52812   7.309  17.809   0.277  0.2256  0.0758 -0.0401
    1W        W52813   9.287   0.992   0.085  0.2867  0.1733 -0.2556
    1W        W52814   6.181  21.643   9.564 -0.4517 -0.1871 -0.1255
    1W        W52815  18.737   8.015   7.372 -0.1357  0.2259  0.0855
    1W        W52816  27.470  10.339   8.327 -0.2088  0.0844 -0.0464
    1W        W52817   3.351  28.600   7.860 -0.1522 -0.2928  0.1648
    1W        W52818   7.220  23.018   6.599  0.0549 -0.1030  0.0368
    1W        W52819  13.784  25.939   1.180 -0.1633 -0.0700  0.2366
    1W        W52820  10.903  22.096   8.622 -0.1305 -0.1658 -0.0932
    1W        W52821  22.933   3.871   0.735  0.2747 -0.0753 -0.0336
    1W        W52822  19.244   5.115   7.438  0.1488 -0.1241 -0.0441
    1W        W52823  23.592   4.486   5.575 -0.2068  0.2433  0.1692
    1W        W52824  28.585   6.256   2.490 -0.0499  0.2607 -0.3636
    1W        W52825   8.524  18.293   6.769  0.1286  0.2526  0.1162
    1W        W52826  20.150  29.014   0.945 -0.2477 -0.2099 -0.1146
    1W        W52827  29.276  18.488   3.263 -0.5092  0.0287  0.0236
    1W        W52828  13.144  28.595   0.214 -0.0956 -0.1140 -0.0383
    1W        W52829  16.508   4.898   0.939 -0.1829  0.3714  0.0476
    1W        W52830  21.160   3.105   7.021  0.0934 -0.1058  0.0157
    1W        W52831   2.489   0.232   2.595 -0.0833  0.1448  0.4424
    1W        W52832  13.902   2.498   3.627 -0.1845 -0.0567 -0.2078
    1W        W52833  15.326  17.254   0.025  0.0347  0.0738  0.4280
    1W        W52834  25.394  20.650   3.505  0.2597  0.0105  0.1541
    1W        W52835  11.216   6.037   2.288 -0.2166 -0.0262 -0.0670
    1W        W52836  14.192   9.401   8.223  0.1600 -0.1530 -0.0378
    1W        W52837  12.748  18.243   0.677  0.2312  0.1221  0.2203
    1W        W52838   6.758   2.714   1.499  0.1681 -0.0089  0.0457
    1W        W52839   7.124   3.922   1.010  0.2730  0.1027 -0.0330
    1W        W52840   1.306  13.099   8.314  0.2716  0.2040 -0.2481
    1W        W52841  23.401  10.502   9.439 -0.3356  0.0439 -0.0602
    1W        W52842  28.104  20.179   2.234 -0.4025  0.2697 -0.3824
    1W        W52843  26.919  21.909   9.232 -0.1439  0.0356  0.1666
    1W        W52844   0.004   9.590   9.538 -0.1342 -0.0601  0.0563
    1W        W52845  12.401   8.580   0.607  0.0113 -0.2379 -0.0731
    1W        W52846   7.808   3.282   7.994 -0.1094  0.2038 -0.3768
    1W        W52847  13.805   9.135   9.251 -0.0821  0.1874  0.0067
    1W        W52848  19.716  13.499   7.955  0.3162  0.3905 -0.0699
    1W        W52849  17.148   3.480   3.044 -0.3205 -0.2010 -0.0283
    1W        W52850   8.342   2.229   8.927 -0.2674  0.2415 -0.2564
    1W        W52851   9.348  19.241   1.598 -0.0667  0.0743  0.0414
    1W        W52852   6.760   6.361   9.358 -0.0197  0.2409  0.2167
    1W        W52853   8.714  10.333   1.104 -0.0849  0.1205 -0.0550
    1W        W52854  22.018   9.271   1.676 -0.0322  0.0722 -0.0820
    1W        W52855  26.375   5.919   7.819  0.1363  0.0719  0.0540
    1W        W52856   1.366  27.400   7.225 -0.2165  0.1355  0.0457
    1W        W52857  16.737   6.939   1.993 -0.0225 -0.0671 -0.1732
    1W        W52858  18.466  12.123   0.334  0.1983  0.1877  0.1664
    1W        W52859  15.271  16.895   7.574 -0.2518  0.3655  0.0057
    1W        W52860  21.839  14.721   8.709 -0.1488  0.0537  0.1374
    1W        W52861  22.074  20.486   9.346  0.1323  0.2003 -0.0082
    1W        W52862  12.510   6.681   0.452 -0.0891  0.0904  0.1578
    1W        W52863   2.511  18.479   8.432 -0.0130 -0.0176  0.1743
    1W        W52864  18.456  25.173   7.626 -0.1337  0.1975  0.1845
    1W        W52865  29.326  27.712   2.535 -0.1345  0.2092 -0.0365
    1W        W52866   8.600   9.112   0.753  0.2088  0.0304 -0.2000
    1W        W52867  18.055  28.965   2.287 -0.2467 -0.0254 -0.3007
    1W        W52868  23.612  26.080   9.381 -0.1458  0.1982  0.2466
    1W        W52869  12.595  26.295   3.458 -0.3426  0.0406  0.4270
    1W        W52870   6.221  25.093   7.060  0.2617  0.0306 -0.1697
    1W        W52871   3.616   1.285   7.396  0.0271  0.0519  0.1907
    1W        W52872  21.515  10.100   8.800 -0.0910 -0.0474 -0.2751
    1W        W52873  21.131  14.544   1.386  0.0948 -0.0387 -0.1920
    1W        W52874   3.939  21.035   1.055  0.1151  0.1592 -0.0873
    1W        W52875  16.221  14.217   7.920  0.0623  0.1270  0.2690
    1W        W52876  19.125   5.302   1.426  0.1763 -0.0487 -0.1175
    1W        W52877   3.862  25.084   3.006  0.1276  0.2097  0.3110
    1W        W52878  14.470  20.909   9.339  0.0143 -0.0653 -0.0261
    1W        W52879  25.945  20.085   0.410  0.2480 -0.0186 -0.0347
    1W        W52880   8.310   3.663   0.517 -0.1613  0.1638 -0.0410
    1W        W52881   8.070  28.856   7.724 -0.2921  0.1023 -0.0114
    1W        W52882  15.131  14.950   1.233 -0.3726 -0.0320 -0.0374
    1W        W52883  13.635  11.316   7.934 -0.1250  0.2301  0.0208
    1W        W52884  14.362  25.271   2.729 -0.0436  0.3859 -0.4430
    1W        W52885   1.706  22.516   9.284 -0.0174 -0.2690  0.1370
    1W        W52886  24.306  22.158   8.593  0.0505 -0.1333 -0.1665
    1W        W52887   2.982   5.829   9.526  0.0829 -0.2500 -0.0922
    1W        W52888  14.062   2.427   1.920 -0.0645  0.0455 -0.2585
    1W        W52889   5.842  27.980   8.992 -0.1780 -0.0435  0.2028
    1W        W52890   2.421   0.691   7.959  0.1819  0.1855  0.1637
    1W        W52891  27.864   8.691   7.732 -0.4350  0.0232  0.0655
    1W        W52892  13.113  13.183   2.036  0.0560 -0.1609  0.2022
    1W        W52893  22.915  12.929   0.007  0.1563  0.0353 -0.1422
    1W        W52894  27.884  18.905   0.138  0.0238  0.0296  0.2768
    1W        W52895  25.245  21.088   7.580 -0.0131 -0.1512 -0.0096
    1W        W52896  23.757   9.647   8.798 -0.1970  0.0206 -0.2900
    1W        W52897  11.142  11.388   8.409  0.1803 -0.1760  0.1236
    1W        W52898  18.177  20.941   0.737 -0.2224 -0.0644 -0.1844
    1W        W52899  12.094   7.062   0.467 -0.0576  0.1553 -0.0648
    1W        W52900   3.573  15.767   7.249 -0.3136 -0.1783 -0.1555
    1W        W52901  18.220  15.071   2.433 -0.0911  0.0923  0.1917
    1W        W52902  18.723  15.157   7.152  0.2072  0.1392  0.1502
    1W        W52903   8.027  16.493   1.104  0.2166  0.1383 -0.0992
    1W        W52904  28.416   8.315   9.691 -0.0651 -0.0219 -0.0900
    1W        W52905   3.728   1.553   0.378 -0.0633  0.3509 -0.1125
    1W        W52906  24.493  11.451   5.902 -0.1369  0.1406 -0.1265
    1W        W52907  12.185  28.942   2.426  0.0931 -0.1525  0.1069
    1W        W52908  10.318  16.766   1.522  0.1677  0.0697  0.2009
    1W        W52909  19.572   4.748   9.501  0.0127  0.0427  0.3162
    1W        W52910  11.440   1.166   2.092 -0.1279  0.0468 -0.2065
    1W        W52911   9.546   6.098   0.884 -0.0803  0.2946 -0.0116
    1W        W52912   8.126  27.776   3.043 -0.1721 -0.1012 -0.2071
    1W        W52913  19.974   5.852   7.580 -0.2048  0.2176 -0.0388
    1W        W52914   4.203   6.776   0.650 -0.2843  0.1639  0.0373
    1W        W52915  20.107   7.929   3.537  0.1654  0.2479  0.0458
    1W        W52916   9.461  27.392   9.435  0.1940 -0.1412 -0.2557
    1W        W52917   1.982  15.546   9.274  0.1827  0.1982  0.1732
    1W        W52918  22.634  17.576   1.999  0.1508  0.3315  0.0050
    1W        W52919  11.145   9.034   0.288  0.0924  0.2623  0.0733
    1W        W52920  16.628  21.818   6.730 -0.3947  0.1815  0.1560
    1W        W52921   1.959   5.063   2.445 -0.0673 -0.1374  0.1007
    1W        W52922   7.816  25.927   2.897  0.1201  0.0507  0.0956
    1W        W52923  22.427  23.619   0.867 -0.2847  0.4595 -0.3606
    1W        W52924   1.830  28.645   1.914 -0.1255  0.0367 -0.0382
    1W        W52925  24.013  21.509   1.742  0.2773 -0.0750 -0.0471
    1W        W52926   2.394  27.983   2.482  0.0550 -0.2629  0.0685
    1W        W52927   7.080   7.648   1.478  0.4100  0.2400  0.3820
    1W        W52928   5.533  14.939   1.030 -0.3395 -0.0437  0.2982
    1W        W52929  24.514   0.250   1.188 -0.1912  0.0045 -0.1781
    1W        W52930   2.978  11.887   1.625  0.0273 -0.1566  0.2633
    1W        W52931  26.623  13.834   7.307 -0.0371  0.2669  0.0693
    1W        W52932   0.405  17.295   8.144 -0.1909  0.3316  0.1650
    1W        W52933  13.230   2.650   8.962 -0.0849  0.1772 -0.0151
    1W        W52934  24.220  18.979   1.584  0.0639  0.3993  0.1602
    1W        W52935  11.082  15.317   0.133 -0.5245 -0.0877  0.0620
    1W        W52936  19.504  11.025   7.299 -0.4113  0.2522 -0.0949
    1W        W52937  15.307   1.321   9.580  0.2392 -0.3553  0.3066
    1W        W52938   9.537   6.222   3.586 -0.1635 -0.3438  0.1438
    1W        W52939  26.434  17.133   0.935 -0.0740  0.1104  0.1564
    1W        W52940  20.802  16.715   2.096 -0.0014 -0.1895  0.0934
    1W        W52941  14.910   3.454   8.597  0.1589 -0.2060  0.0202
    1W        W52942   8.967  22.375   1.644  0.0366 -0.0088  0.0394
    1W        W52943  23.328  25.146   7.589  0.0544  0.1998  0.4554
    1W        W52944  21.471  24.490   8.550 -0.2221 -0.0432 -0.1882
    1W        W52945  29.103  15.109   0.057  0.1176 -0.1578  0.2906
    1W        W52946  16.212  28.281   0.577  0.2789 -0.1427  0.1043
    1W        W52947  24.705  25.151   1.960 -0.0602 -0.1918  0.1201
    1W        W52948  17.007  19.377   0.395  0.0647 -0.1020 -0.0151
    1W        W52949   1.662  19.632   8.068  0.0000  0.0513 -0.2833
    1W        W52950   7.822  24.926   8.538  0.3155 -0.3037  0.2021
    1W        W52951  25.200  19.713   8.439 -0.3473  0.0161 -0.1803
    1W        W52952  12.858   5.082   1.215 -0.0407 -0.2691 -0.1070
    1W        W52953   2.130  12.950   8.994  0.0975 -0.4261 -0.1974
    1W        W52954   7.297   4.396   1.093 -0.0247 -0.0247 -0.1709
    1W        W52955   2.023   5.157   8.796 -0.4818  0.0236  0.0883
    1W        W52956  19.243   4.341   7.220 -0.2354 -0.4157 -0.1252
    1W        W52957  20.950   8.673   7.991  0.0518  0.1772 -0.0031
    1W        W52958  10.376  11.611   0.018 -0.2848  0.1588 -0.0080
    1W        W52959  25.841  24.742   0.895  0.2560 -0.0969  0.0379
    1W        W52960   6.918   5.720   2.030 -0.0476 -0.0451 -0.2742
    1W        W52961  19.215  22.141   1.735 -0.1608 -0.1105  0.0886
    1W        W52962   8.532  15.784   7.982 -0.0102 -0.2662  0.0450
    1W        W52963   6.150  29.280   1.221  0.1555  0.1908  0.0830
    1W        W52964  17.226   0.576   0.603 -0.3818 -0.2764  0.4506
    1W        W52965   4.369   7.575   6.730  0.1484 -0.3786  0.0153
    1W        W52966  14.482  25.357   1.108 -0.1913  0.0913 -0.1608
    1W        W52967  16.848  21.841   8.444 -0.1709  0.0369 -0.0229
    1W        W52968  14.805  28.088   8.583  0.0320 -0.1167  0.1489
    1W        W52969  12.675  21.729   2.394 -0.1419  0.0264 -0.1978
    1W        W52970  21.565  23.189   7.784  0.1421  0.0080  0.2364
    1W        W52971  29.272  13.082   1.385  0.5282  0.1024 -0.0196
    1W        W52972   4.068  20.048   1.539 -0.0277  0.0664 -0.1035
    1W        W52973  13.659  13.841   2.025  0.0266 -0.0509  0.1650
    1W        W52974  12.893  19.364   7.162  0.0214  0.0386 -0.0743
    1W        W52975  12.983  18.605   1.293 -0.0378 -0.0307  0.2344
    1W        W52976  10.015   2.517   1.452 -0.2120 -0.0430 -0.2002
    1W        W52977  24.379  13.472   1.490 -0.0989  0.0128 -0.1461
    1W        W52978  20.775   1.457   9.399 -0.0402 -0.2512 -0.0205
    1W        W52979  22.277  26.912   0.526 -0.0699 -0.3424  0.3092
    1W        W52980   1.251   7.056   8.167  0.0906  0.1918  0.3648
    1W        W52981  25.849  11.119   9.375 -0.0928  0.1671  0.3096
    1W        W52982   5.085   0.611   1.500  0.0342  0.1959 -0.0339
    1W        W52983   9.207  11.770   7.194 -0.3080 -0.2158  0.0114
    1W        W52984  22.795  12.387   7.674  0.4056 -0.3179 -0.1537
    1W        W52985  16.387  21.615   8.187 -0.1131  0.4485 -0.1352
    1W        W52986  24.181   8.965   0.395  0.0562 -0.0439  0.1570
    1W        W52987  20.315  25.204   0.059 -0.0153  0.0245  0.0068
    1W        W52988   5.530  15.206   2.032  0.1034  0.5111 -0.1983
    1W        W52989  20.262   9.554   2.514 -0.0835 -0.4088 -0.0228
    1W        W52990   5.356   8.954   2.584  0.0882  0.2084  0.0812
    1W        W52991  21.817  22.517   2.034 -0.1498  0.0096 -0.0603
    1W        W52992  26.419  27.512   9.645 -0.0546 -0.0037  0.0833
    1W        W52993  22.113   2.523   8.784 -0.1963  0.1107 -0.0061
    1W        W52994  27.950   3.235   8.498  0.1593 -0.0277  0.1122
    1W        W52995  10.302  11.217   1.504  0.1304 -0.2674  0.1286
    1W        W52996   7.741  27.826   3.457  0.1049 -0.1000  0.1976
    1W        W52997  17.268  12.027   7.507  0.2031  0.2542  0.2137
    1W        W52998   1.566  15.879   1.545 -0.0865 -0.1847  0.0489
    1W        W52999  13.546   6.266   2.615 -0.0953 -0.2160 -0.1869
    1W        W53000  28.790  25.564   1.433  0.3417 -0.1452 -0.1640
    1W        W53001  10.633  29.261   8.092  0.0671  0.0772 -0.0378
    1W        W53002  16.738  23.400   2.417 -0.0289  0.0519  0.2658
    1W        W53003  26.974  27.518   0.832 -0.1674 -0.0006 -0.1119
    1W        W53004  23.989   8.596   7.278  0.4382 -0.3975  0.0258
    1W        W53005  24.300  18.577   0.543 -0.1591  0.0342  0.2432
    1W        W53006   3.762  27.599   9.030  0.0383 -0.2291  0.0218
    1W        W53007  16.159  27.834   8.556  0.0800 -0.4449 -0.0391
    1W        W53008  13.862  18.488   2.775  0.0649 -0.0527 -0.0688
    1W        W53009   0.066   4.593   8.297  0.2615  0.1624  0.2614
    1W        W53010  15.161   0.824   2.612 -0.2619  0.0052 -0.2641
    1W        W53011  11.411  10.833   6.699  0.0563  0.2838 -0.0249
    1W        W53012  18.419  29.321   2.335 -0.0308  0.2058 -0.1388
    1W        W53013  19.022  11.010   8.196  0.0186  0.0395 -0.1180
    1W        W53014  17.608   4.539   1.000  0.0520  0.2220 -0.1228
    1W        W53015  14.655  22.210   0.879  0.0808 -0.0003 -0.0695
    1W        W53016   1.460  21.253   2.196 -0.2634  0.0853 -0.1894
    1W        W53017   0.736   0.919   7.030  0.1525  0.0960  0.3377
    1W        W53018   4.425  26.725   1.649 -0.1678  0.0714  0.0023
    1W        W53019  18.240  20.942   2.829  0.0553 -0.1773 -0.0780
    1W        W53020  26.194  10.492   1.543 -0.2249  0.0972  0.1631
    1W        W53021   8.945  21.410   0.293  0.0328 -0.0277  0.0839
    1W        W53022   5.130  11.088   0.363  0.1847 -0.1267  0.0405
    1W        W53023  13.421  29.143   2.514  0.1281  0.3039  0.3754
    1W        W53024  18.098   0.373   8.459  0.1934 -0.1480  0.3520
    1W        W53025   7.015   4.412   1.830  0.3565 -0.0548 -0.2283
    1W        W53026  15.818  10.588   8.959  0.1693 -0.1441 -0.0392
    1W        W53027   5.909   1.675   6.352 -0.1753  0.0671 -0.0897
    1W        W53028  28.717  11.543   7.905 -0.0926  0.1043 -0.1067
    1W        W53029   8.300  20.016   0.075  0.2139  0.0079 -0.1731
    1W        W53030  24.850   8.407   2.170 -0.1659 -0.0210  0.1310
    1W        W53031  24.530  10.745   8.702  0.1465  0.3176  0.1022
    1W        W53032   9.364  18.112   0.740  0.2701  0.2677  0.0978
    1W        W53033  11.350  18.618   1.244 -0.2624 -0.2028 -0.1030
    1W        W53034   4.907  22.727   3.197  0.2637  0.0795 -0.1767
    1W        W53035  24.672   1.130   2.398  0.0073 -0.0016 -0.1860
    1W        W53036   1.043  22.199   7.379 -0.0233 -0.0465 -0.2878
    1W        W53037  24.417  14.866   9.092  0.0212  0.0971 -0.3751
    1W        W53038  12.135  14.504   2.408  0.1128  0.1701  0.0753
    1W        W53039  19.408  20.036   2.415 -0.0169  0.1272 -0.1337
    1W        W53040   0.770  17.444   1.947 -0.0321 -0.3331  0.3982
    1W        W53041  22.315   0.921   8.796 -0.2235 -0.2390 -0.0450
    1W        W53042  28.138  16.435   2.500  0.1962 -0.0839 -0.2645
    1W        W53043   8.350  27.694   8.920 -0.1943  0.0218  0.3757
    1W        W53044   2.151  23.885   1.609 -0.4448 -0.0417 -0.2460
    1W        W53045   4.984   0.920   8.622  0.1664  0.0026 -0.0297
    1W        W53046  23.411  24.530   0.417  0.1391 -0.4945  0.0200
    1W        W53047  11.390   6.295   6.936  0.2594 -0.1426 -0.1343
    1W        W53048  26.520   1.253   2.301 -0.4094  0.2627  0.1721
    1W        W53049  15.075   1.534   7.291  0.5449  0.1546  0.0328
    1W        W53050  24.459  28.037   2.057  0.0688 -0.0205  0.1159
    1W        W53051  14.553   8.709   8.761 -0.1301  0.1501 -0.1971
    1W        W53052   9.177  20.763   6.023 -0.0518 -0.2034 -0.1178
    1W        W53053  16.336  15.649   1.814  0.0200  0.1754 -0.1423
    1W        W53054   6.476  18.868   8.419  0.1399  0.0818 -0.2058
    1W        W53055  19.396  14.863   2.183  0.0366 -0.1375 -0.2900
    1W        W53056  19.132  22.953   6.845  0.0725  0.0838  0.1143
    1W        W53057   3.310  20.376   7.953  0.3412  0.0886  0.0655
    1W        W53058  13.789  16.414   1.870 -0.1740 -0.2217 -0.0219
    1W        W53059  20.682   8.230   2.116 -0.2510  0.2776 -0.0147
    1W        W53060   0.926  14.617   6.052  0.1492 -0.0177 -0.2297
    1W        W53061   7.486  26.079   9.394  0.0021  0.0786  0.1127
    1W        W53062  11.462  20.862   8.215  0.0861  0.3353 -0.2758
    1W        W53063   4.735  24.622   7.129  0.2925  0.1065  0.1023
    1W        W53064  14.750  23.176   2.324 -0.2107  0.2649  0.2174
    1W        W53065  23.210  14.794   7.209  0.4693  0.0537  0.2281
    1W        W53066  28.198   9.767   0.615 -0.1004 -0.2278  0.0045
    1W        W53067  19.238  16.122   0.188  0.0244 -0.0329  0.0838
    1W        W53068  15.964  13.955   1.065 -0.1072  0.3161  0.2714
    1W        W53069  19.582   6.472   8.102  0.0064  0.0344  0.0483
    1W        W53070   1.651   4.246   1.457 -0.2229 -0.0103  0.0330
    1W        W53071   5.662   9.231   9.314  0.1304 -0.1615 -0.1101
    1W        W53072   7.452  25.288   8.032  0.0496 -0.1223 -0.1061
    1W        W53073  13.115  22.724   7.650  0.3340  0.1186 -0.0275
    1W        W53074   2.878   5.336   9.448  0.4250  0.1953  0.3950
    1W        W53075  27.980   7.861   6.535 -0.1477  0.0576 -0.1368
    1W        W53076  29.032   9.274   2.352 -0.1079  0.2599 -0.0613
    1W        W53077  27.298  25.439   8.601 -0.2958 -0.0829  0.0365
    1W        W53078   3.834  19.996   9.213  0.0152  0.2305  0.1420
    1W        W53079   0.589   3.772   7.435  0.0219 -0.0669 -0.1518
    1W        W53080  22.652  28.538   0.548  0.1066 -0.0695 -0.0359
    1W        W53081  25.630  20.543   7.659 -0.1129 -0.0114 -0.0007
    1W        W53082   0.575  24.509   2.139 -0.1161  0.1237 -0.1341
    1W        W53083  14.056   3.354   1.624 -0.0974  0.2194  0.3043
    1W        W53084   9.643  19.019   2.121  0.3102  0.1382 -0.0829
    1W        W53085  10.278   6.522   2.399  0.2183  0.2692  0.0062
    1W        W53086  19.632  10.045   0.397 -0.0470 -0.1642  0.0911
    1W        W53087  11.052   1.654   8.379 -0.1326 -0.3377 -0.2134
    1W        W53088  15.433  17.478   0.810  0.2945  0.0505 -0.0471
    1W        W53089  26.729  13.182   2.875  0.0912 -0.2803  0.1347
    1W        W53090  14.883   6.484   0.374 -0.1963  0.5273 -0.0313
    1W        W53091  23.207  23.384   1.585  0.1963 -0.1265 -0.0794
    1W        W53092  29.068  16.874   7.879 -0.0259  0.0304 -0.0301
    1W        W53093   1.655  27.847   1.903  0.0027 -0.1410 -0.2525
    1W        W53094   9.070  13.780   2.497 -0.0188  0.3567  0.0469
    1W        W53095  23.921  22.285   8.265 -0.0038  0.0225  0.0969
    1W        W53096  12.927  12.092   8.474 -0.0149 -0.2409  0.3032
    1W        W53097   2.353  23.315   7.722 -0.0094 -0.0571  0.1702
    1W        W53098  18.476   7.310   2.039 -0.0841  0.2810 -0.0190
    1W        W53099  19.669  16.312   8.554 -0.0964 -0.1206  0.1250
    1W        W53100  15.284  13.673   1.209  0.0637  0.2470  0.1020
    1W        W53101  27.762  23.255   8.562  0.1243 -0.0679 -0.2223
    1W        W53102  10.538  27.844   6.902  0.2974  0.0916  0.0459
    1W        W53103  12.647   7.729   0.356  0.0613  0.0829 -0.3895
    1W        W53104  17.705   8.939   0.394 -0.2197 -0.2922  0.2396
    1W        W53105  22.639  11.665   6.523 -0.1775 -0.1248  0.0377
    1W        W53106  29.200  24.744   9.659  0.0080  0.1311  0.2317
    1W        W53107  27.880  17.641   2.080 -0.0361  0.1435 -0.0542
    1W        W53108  11.525  16.169   1.970  0.1455  0.0898 -0.0194
    1W        W53109  23.069  14.161   2.080  0.0164 -0.0389 -0.2341
    1W        W53110  10.026   9.779   8.565  0.1045 -0.1631 -0.1511
    1W        W53111   5.271  13.150   0.027 -0.0278 -0.2003 -0.1416
    1W        W53112  13.226   7.614   9.319  0.1304  0.1693  0.1329
    1W        W53113   0.926  28.687   0.563 -0.3536 -0.0315  0.1120
    1W        W53114   4.981  19.045   9.318 -0.0506 -0.0947  0.0188
    1W        W53115  16.009   8.684   0.253  0.0048  0.2710 -0.2034
    1W        W53116  18.548   9.089   0.537  0.2317  0.2589  0.1834
    1W        W53117   4.664  10.720   3.485 -0.1888  0.3150  0.1025
    1W        W53118   2.306  23.434   1.454 -0.0419 -0.1911 -0.0536
    1W        W53119  22.123   4.852   7.192  0.0883 -0.0159 -0.2132
    1W        W53120  14.117   4.414   8.569 -0.0973 -0.1895 -0.3331
    1W        W53121  14.030  27.469   3.871  0.0204 -0.0285  0.1492
    1W        W53122  14.938  14.382   0.747  0.0571  0.2007  0.0543
    1W        W53123  18.467  19.553   1.384  0.2925  0.1168 -0.1159
    1W        W53124  12.901   1.410   8.020 -0.0947  0.0497  0.0951
    1W        W53125   8.457  18.751   1.647  0.2532 -0.1053  0.1791
    1W        W53126  15.287  16.354   1.386 -0.1089 -0.3159 -0.0457
    1W        W53127   8.049  12.325   0.031  0.1438  0.1695  0.0217
    1W        W53128  18.484  28.834   0.248 -0.0060  0.0047  0.1735
    1W        W53129  12.005  11.556   0.988  0.4124 -0.2789 -0.2633
    1W        W53130  14.939   0.644   1.119 -0.6697 -0.1164 -0.0003
    1W        W53131  13.496  24.574   6.845 -0.0093 -0.0762  0.0877
    1W        W53132   8.073  14.012   1.796  0.0927  0.0527 -0.2046
    1W        W53133  17.181  24.439   1.852 -0.4619  0.1622  0.2412
    1W        W53134   0.877  25.577   2.526 -0.1411 -0.0223 -0.1204
    1W        W53135  19.004  25.383   9.147  0.0002 -0.2262  0.1143
    1W        W53136  17.611   4.735   1.972  0.0215 -0.0211 -0.0366
    1W        W53137  16.413  14.816   0.400  0.0833 -0.3111  0.1785
    1W        W53138   8.415   1.773   2.449 -0.1716  0.1787  0.0368
    1W        W53139   6.452  20.168   1.205  0.1138 -0.0269 -0.0077
    1W        W53140  23.282  20.403   2.406  0.1826  0.0510 -0.1264
    1W        W53141  16.043  27.130   7.989  0.4065 -0.2261  0.0919
    1W        W53142   4.413  22.774   9.227  0.3107  0.2530  0.0322
    1W        W53143  12.948  27.759   8.279 -0.1369  0.1016 -0.1103
    1W        W53144   0.909  21.884   8.334  0.3512 -0.1498 -0.0603
    1W        W53145  28.642  13.196   1.768  0.2137 -0.0772  0.2394
    1W        W53146  29.165  27.941   7.512 -0.2059  0.1527 -0.2203
    1W        W53147  19.441  22.961   2.635  0.1015 -0.0421  0.1431
    1W        W53148   7.614  20.800   9.436  0.1227  0.1868  0.0996
    1W        W53149  14.799  13.372   2.519  0.1919 -0.1685  0.3463
    1W        W53150  19.576   1.027   2.795  0.0809  0.4723  0.2439
    1W        W53151  24.618  18.378   6.880  0.1626 -0.0632 -0.0668
    1W        W53152  13.912   7.128   0.542 -0.0397 -0.1575  0.1598
    1W        W53153   0.227   4.338   8.765 -0.0570 -0.1529 -0.5918
    1W        W53154  29.095  24.299   7.490  0.0808  0.0563  0.4493
    1W        W53155   5.890   2.869   8.953  0.0244 -0.0555 -0.2304
    1W        W53156  11.127  21.168   1.825 -0.0251 -0.1934 -0.2013
    1W        W53157  10.291   3.248   9.093 -0.2274  0.0950  0.0513
    1W        W53158   9.024   8.268   9.222 -0.1317  0.4390  0.1407
    1W        W53159  10.013  27.628   7.087 -0.3220 -0.0672  0.2711
    1W        W53160   3.420   4.215   6.216 -0.0056  0.0892  0.0488
    1W        W53161   0.112  12.788   2.149  0.0344 -0.0162  0.2084
    1W        W53162  11.052  14.845   0.340  0.1955  0.0059 -0.3081
    1W        W53163  12.807  21.744   0.987  0.0830  0.2825  0.0706
    1W        W53164  28.452   2.065   6.458 -0.0199 -0.0997  0.2507
    1W        W53165  18.034   3.619   2.543 -0.0127  0.1220  0.0812
    1W        W53166  15.940   7.419   1.686  0.2421 -0.0492 -0.1607
    1W        W53167  16.877  22.407   7.550 -0.0327 -0.1094 -0.2849
    1W        W53168  27.752  17.933   0.143  0.0323  0.2136  0.1772
    1W        W53169  13.948  27.456   7.624 -0.1003  0.0566  0.2753
    1W        W53170  16.487  18.567   1.161 -0.1196  0.0600 -0.0663
    1W        W53171  20.607  27.819   0.301  0.0824  0.1341 -0.0653
    1W        W53172  23.511   8.696   7.153 -0.0791  0.0254 -0.2308
    1W        W53173   7.836  16.128   8.973 -0.0698  0.2709  0.1146
    1W        W53174   3.561  28.691   6.763  0.2064  0.3163  0.3679
    1W        W53175  16.080  13.033   9.272  0.2518 -0.0811  0.2292
    1W        W53176   2.884  28.454   1.534  0.1820 -0.1463 -0.0115
    1W        W53177  21.346   1.565   1.874 -0.1101 -0.1712  0.3153
    1W        W53178   5.131  10.490   9.267  0.0728  0.1054 -0.1039
    1W        W53179  22.935  29.071   9.245  0.0338  0.1522  0.5277
    1W        W53180  21.826  28.060   7.666 -0.1751 -0.1546  0.3338
    1W        W53181  18.297   0.340   9.611  0.0555  0.0114  0.2136
    1W        W53182   0.896  10.921   9.054  0.3445 -0.0134 -0.0571
    1W        W53183   0.552  15.003   0.710 -0.0070 -0.1080 -0.1938
    1W        W53184  21.043   2.536   1.692  0.3778  0.1283  0.3389
    1W        W53185   6.078   6.824   7.182  0.1540  0.1395  0.0064
    1W        W53186   6.096  26.557   0.400 -0.0215 -0.3780  0.2013
    1W        W53187   7.730  16.947   2.552 -0.1549 -0.0914  0.1439
    1W        W53188   6.119   2.625   9.342  0.1272  0.1756 -0.0397
    1W        W53189  26.283  25.795   0.217 -0.0596 -0.0394  0.1498
    1W        W53190  28.579  14.667   5.563 -0.0282 -0.0421  0.0543
    1W        W53191   5.157  15.557   1.649  0.2461 -0.1156  0.0397
    1W        W53192   2.205   0.959   9.144 -0.1026 -0.2226  0.0394
    1W        W53193  23.852  22.822   8.204  0.1765  0.1683 -0.1294
    1W        W53194  27.028   0.009   8.708  0.2057  0.2082 -0.0229
    1W        W53195  21.222   3.433   7.392  0.0484  0.1750  0.1110
    1W        W53196  17.123   1.892   7.263 -0.4691 -0.2616  0.0624
    1W        W53197   9.144  25.860   1.272  0.0720  0.1502  0.1444
    1W        W53198  24.684   5.160   0.667 -0.2147  0.2708 -0.3102
    1W        W53199  10.628  27.104   8.928  0.3484 -0.2319  0.1077
    1W        W53200  22.071  20.794   8.734 -0.1529 -0.2327 -0.4248
    1W        W53201  19.267   1.834   6.702 -0.2626 -0.2009  0.3737
    1W        W53202  11.083  16.950   7.673 -0.1438  0.1984 -0.1429
    1W        W53203   9.383  17.485   9.160  0.0487  0.0511 -0.1022
    1W        W53204   8.404   4.808   0.725  0.1133 -0.1864  0.0272
    1W        W53205  13.738  16.481   8.144 -0.0862  0.0172  0.0607
    1W        W53206  27.554   8.197   6.810  0.3769 -0.1182  0.2381
    1W        W53207   4.012  20.156   0.264  0.1512 -0.1418  0.2933
    1W        W53208   6.818   2.713   9.246  0.2777 -0.0416  0.1669
    1W        W53209  26.128  15.901   0.364 -0.1539 -0.2865  0.1059
    1W        W53210  23.185  16.708   2.487 -0.0864 -0.2432 -0.0451
    1W        W53211  14.192   7.294   3.163  0.1346 -0.2685  0.2958
    1W        W53212  19.884   6.807   0.115  0.1133  0.2320  0.1109
    1W        W53213  25.271   0.242   7.699  0.2269  0.1792 -0.0698
    1W        W53214  21.820   0.077   2.592  0.1159  0.2344 -0.1420
    1W        W53215  25.879  10.410   0.744  0.2798  0.0301  0.0056
    1W        W53216  27.250  21.309   8.389 -0.0529 -0.1397  0.3724
    1W        W53217   9.569  11.083   8.175  0.0457 -0.0527  0.0367
    1W        W53218   4.649  25.138   7.418  0.1155  0.3567 -0.0851
    1W        W53219   6.678   9.232   1.209  0.0178  0.0561  0.2121
    1W        W53220   4.715   7.215   6.931  0.0068  0.2920 -0.0407
    1W        W53221  24.311  26.488   2.275  0.2364 -0.0415 -0.0691
    1W        W53222  12.559   9.650   0.765  0.0423  0.1906 -0.0425
    1W        W53223  28.187  28.129   8.327  0.3106  0.0562 -0.0034
    1W        W53224  25.678  26.264   2.966 -0.2647  0.2070  0.0431
    1W        W53225  11.816  21.485   8.818 -0.0116  0.3308  0.0816
    1W        W53226  14.314  28.399   8.852  0.0538 -0.0532  0.1668
    1W        W53227   6.381  28.068   2.065  0.4964 -0.1758  0.0052
    1W        W53228  23.016  26.007   8.584 -0.0279  0.1776 -0.3715
    1W        W53229  25.015  18.801   8.534  0.3654 -0.2286 -0.1210
    1W        W53230   4.375  26.981   7.491  0.0804 -0.0677 -0.1377
    1W        W53231  17.961  18.614   7.322  0.1218 -0.0143  0.0232
    1W        W53232   5.675  27.210   7.303  0.0724  0.0475 -0.1293
    1W        W53233   7.763  11.125   1.143  0.0395  0.4767  0.1166
    1W        W53234  29.218  26.138   2.099 -0.0380  0.1251  0.2004
    1W        W53235  16.227  23.406   8.408  0.0897 -0.1245  0.1282
    1W        W53236  19.078  22.275   6.619  0.1701 -0.0604 -0.0613
    1W        W53237  29.054   5.309   1.091  0.2395 -0.2057  0.0583
    1W        W53238  24.215   5.197   0.881  0.2438  0.1595 -0.0207
    1W        W53239  21.824   1.713   2.034 -0.1084 -0.0755 -0.1821
    1W        W53240   0.941  18.363   0.433 -0.2233  0.2463  0.2625
    1W        W53241  10.648  22.911   9.556  0.3301 -0.1327 -0.0198
    1W        W53242  22.005  27.942   0.878  0.3058 -0.0175 -0.1503
    1W        W53243  20.984  16.396   0.243  0.3261 -0.4738  0.0628
    1W        W53244  13.352  22.164   8.563 -0.1684 -0.0307  0.1898
    1W        W53245  12.572  17.356   1.242  0.0599 -0.0564  0.0676
    1W        W53246  23.319  18.945   8.427  0.2261  0.2857 -0.0635
    1W        W53247  12.077  28.800   1.336 -0.0352 -0.1171 -0.0508
    1W        W53248   8.812  17.841   2.124  0.2994  0.2315 -0.3347
    1W        W53249   1.522   4.485   8.365  0.0933 -0.0765 -0.3732
    1W        W53250  23.197  26.904   0.417  0.1733 -0.3074 -0.1231
    1W        W53251  16.435  10.127   8.301 -0.0431  0.4131 -0.0010
    1W        W53252   0.312  13.215   6.681  0.0004 -0.0027 -0.0780
    1W        W53253  25.546  25.044   8.181 -0.2173 -0.4166 -0.3319
    1W        W53254  28.458  27.065   2.816  0.1060  0.0694 -0.1817
    1W        W53255  21.816   5.300   8.630 -0.1723 -0.1817 -0.2261
    1W        W53256  15.488   7.204   9.609 -0.0391  0.1322  0.2970
    1W        W53257  15.340  12.062   7.751 -0.0025  0.1316 -0.1117
    1W        W53258  19.894   6.472   8.585 -0.4779  0.1642  0.1088
    1W        W53259  12.935  20.728   0.265  0.3851  0.2775  0.1141
    1W        W53260  11.936   4.944   1.120  0.1416 -0.2432  0.2130
    1W        W53261  23.300   1.776   7.528  0.0804 -0.0762  0.3898
    1W        W53262   0.494   9.669   9.623  0.0044  0.0180  0.1583
    1W        W53263  16.745  20.691   0.353 -0.0151  0.0469  0.0180
    1W        W53264  20.609   0.549   8.916 -0.0215  0.0861  0.0478
    1W        W53265  12.404  27.233   3.249  0.2231  0.2440  0.0535
    1W        W53266   7.377  21.516   1.658 -0.0790  0.1766 -0.0461
    1W        W53267  18.168   5.051   9.309  0.1991  0.0358  0.0709
    1W        W53268  18.580   7.964   9.670  0.2601 -0.1208 -0.0722
    1W        W53269  15.882  20.568   8.123 -0.0519 -0.0907 -0.2587
    1W        W53270  28.826  24.488   9.435  0.0176  0.0407 -0.2901
    1W        W53271  11.415  21.859   0.882 -0.0096 -0.1348  0.0441
    1W        W53272   1.187  24.139   1.523 -0.2888  0.0885 -0.2044
    1W        W53273  22.055   3.883   7.388 -0.1436  0.0169 -0.1642
    1W        W53274  18.615   9.985   7.250  0.0539  0.2337  0.1553
    1W        W53275  13.317  23.569   3.122  0.2139 -0.0364 -0.2444
    1W        W53276  23.156  14.443   8.440 -0.1360  0.1094  0.1896
    1W        W53277  28.916  28.338   6.549 -0.3412  0.0986 -0.3693
    1W        W53278   5.126  24.962   7.098 -0.2512 -0.1640 -0.1991
    1W        W53279   0.034  20.829   9.007  0.0359 -0.3057  0.0037
    1W        W53280  21.619   2.222   8.770 -0.0955  0.0471 -0.2689
    1W        W53281   3.395  21.287   6.217  0.5223 -0.3005  0.1731
    1W        W53282  22.682   3.423   5.994  0.1972 -0.0419 -0.4613
    1W        W53283  23.956  16.233   5.814 -0.1396  0.0658  0.2512
    1W        W53284   8.332  22.934   5.855  0.1511  0.3090 -0.3375
    1W        W53285  22.521   3.461   8.759  0.0634  0.2003  0.1485
    1W        W53286  14.639  24.009   1.882 -0.2356 -0.0991 -0.1258
    1W        W53287  19.217   4.476   8.328 -0.2412 -0.0611 -0.0438
    1W        W53288  22.825  25.651   1.020 -0.0840  0.1758 -0.0738
    1W        W53289  14.586  16.513   2.472 -0.6557 -0.1479  0.2285
    1W        W53290  25.460  12.627   0.895  0.2315 -0.2294  0.1764
    1W        W53291  26.586   7.095   9.021  0.1428 -0.1859 -0.0792
    1W        W53292   2.508   1.895   9.559 -0.2552 -0.2326 -0.1315
    1W        W53293  26.490  28.000   3.437  0.0518 -0.0545  0.2902
    1W        W53294  17.548   8.253   2.520 -0.1879 -0.2708 -0.2162
    1W        W53295   0.030   8.686   8.385  0.0676 -0.0977 -0.0354
    1W        W53296   8.195   9.148   7.240  0.2820  0.0169 -0.0928
    1W        W53297  12.944  21.004   8.161  0.1572 -0.2631 -0.2667
    1W        W53298   7.566  11.822   8.060  0.0398 -0.0713 -0.0763
    1W        W53299  13.038  12.887   0.980  0.0862  0.2732  0.0033
    1W        W53300  20.382  13.009   9.385  0.0462 -0.2470 -0.1468
    1W        W53301  24.070   4.176   9.454 -0.0995  0.0334  0.0879
    1W        W53302  17.175   4.186   1.854 -0.1428  0.0538  0.0789
    1W        W53303   0.097  16.158   8.478 -0.0351 -0.2015 -0.1956
    1W        W53304  15.935   2.187   2.340 -0.1311 -0.0582 -0.1058
    1W        W53305  28.338  24.551   0.483 -0.0797  0.3645  0.2229
    1W        W53306  11.520  22.035   8.077 -0.2680  0.2262 -0.0391
    1W        W53307   4.741   5.040   9.465 -0.1670  0.0098 -0.2456
    1W        W53308  10.336   0.357   2.404 -0.1491 -0.0909 -0.0125
    1W        W53309   2.508   9.871   9.007  0.0153  0.0041 -0.2427
    1W        W53310  23.246  14.987   0.416 -0.1098  0.0251 -0.0542
    1W        W53311  13.287   6.454   7.270  0.2126  0.2022  0.2006
    1W        W53312  13.071  14.490   0.937  0.0352 -0.1990  0.0850
    1W        W53313  27.120  19.087   0.185  0.1229 -0.0554 -0.2243
    1W        W53314  10.204  29.262   1.551 -0.0941  0.2091 -0.3138
    1W        W53315   8.982  19.687   8.647  0.0188  0.0053 -0.0877
    1W        W53316  28.446   8.230   2.156 -0.1883 -0.0944 -0.1058
    1W        W53317   6.049   8.656   9.465  0.1517  0.1162 -0.1357
    1W        W53318  22.294  25.300   2.242  0.1204 -0.0944 -0.1178
    1W        W53319  18.371  27.633   3.907  0.3974  0.0455 -0.0603
    1W        W53320   4.970  24.076   0.372  0.1605  0.1780 -0.1518
    1W        W53321  10.972   8.610   1.228  0.0198  0.0920  0.1907
    1W        W53322   5.346  23.397   8.499 -0.2581 -0.0480  0.2891
    1W        W53323  12.797  19.211   8.178  0.0625  0.1945 -0.1066
    1W        W53324  16.817  12.448   1.526  0.1449  0.1782  0.4461
    1W        W53325  23.800  25.248   9.079  0.1884  0.0601 -0.1530
    1W        W53326   5.463  18.224   1.872 -0.3396 -0.0459  0.1950
    1W        W53327   4.169   9.597   0.723 -0.2916  0.0728  0.1206
    1W        W53328  28.181   9.094   0.608  0.1090 -0.3056  0.1340
    1W        W53329   6.751  27.726   7.105  0.0473 -0.2225  0.4179
    1W        W53330  13.680  19.835   2.162 -0.3986 -0.0776  0.0896
    1W        W53331   5.311  11.259   8.739 -0.1357 -0.3240 -0.2194
    1W        W53332   5.700  16.661   9.419 -0.2025 -0.0805  0.0097
    1W        W53333  25.974   4.309   6.456  0.1984 -0.0096 -0.1768
    1W        W53334  27.104   3.899   1.254 -0.0017  0.1448 -0.2387
    1W        W53335   2.997   1.654   8.580  0.0860 -0.1505 -0.1147
    1W        W53336   4.118  16.790   0.191  0.0936 -0.0213  0.2716
    1W        W53337   1.402  26.222   2.037  0.0725 -0.4306 -0.0319
    1W        W53338  20.526   1.404   0.962 -0.0066 -0.0107  0.1967
    1W        W53339   3.712   5.528   1.384 -0.0604  0.0108  0.0696
    1W        W53340   3.411  10.537   7.485  0.1189 -0.2475 -0.1183
    1W        W53341  19.980  18.628   1.086 -0.0074 -0.1530  0.0789
    1W        W53342  10.648  20.738   9.393  0.1001  0.1879 -0.0777
    1W        W53343  21.154  12.592   0.081  0.1580 -0.3435  0.2112
    1W        W53344  26.815  24.710   2.469 -0.0694 -0.4283  0.0224
    1W        W53345  16.533  13.123   8.724 -0.2071  0.1068  0.0938
    1W        W53346  16.405  17.283   2.201  0.0810  0.2075  0.0710
    1W        W53347   0.144  11.472   7.259 -0.2039  0.1080 -0.0868
    1W        W53348   2.262   7.823   0.546  0.0259  0.1307 -0.1146
    1W        W53349   2.788  22.091   0.830 -0.1487 -0.1035  0.0746
    1W        W53350  24.551  12.869   9.660  0.0953  0.0254 -0.0422
    1W        W53351  14.470  10.153   7.875  0.0499  0.0373 -0.1762
    1W        W53352  15.929   4.585   9.035 -0.2941 -0.1401  0.0203
    1W        W53353   2.346  11.626   8.730 -0.0075 -0.1022 -0.4156
    1W        W53354  27.600  12.501   7.608 -0.1477  0.1665  0.2020
    1W        W53355  26.096  16.976   7.242 -0.1382 -0.0433  0.4332
    1W        W53356  21.400  14.509   8.927 -0.1592  0.2902 -0.0120
    1W        W53357  15.957  13.647   7.945  0.2153  0.1248  0.0322
    1W        W53358  29.064  23.634   9.576  0.0246  0.0208 -0.1187
    1W        W53359  21.629  17.217   6.802 -0.4095  0.0654 -0.1096
    1W        W53360  25.070  13.279   0.714  0.4490  0.2150 -0.0792
    1W        W53361  15.070  20.445   6.980  0.0538  0.0420  0.0701
    1W        W53362  27.746   2.256   2.497 -0.1946 -0.1092  0.2283
    1W        W53363  17.605  28.509   9.007 -0.1330  0.2355  0.2621
    1W        W53364   4.075  27.680   1.654  0.1910 -0.0512  0.0151
    1W        W53365  16.970   3.260   2.498 -0.1406 -0.0143 -0.0022
    1W        W53366   0.938  12.172   7.124 -0.0129  0.1676 -0.0538
    1W        W53367   2.895  22.668   9.269  0.7631  0.0952 -0.0266
    1W        W53368  14.960   1.131   1.705  0.1527 -0.0133  0.1312
    1W        W53369  28.282  14.097   8.053  0.1679 -0.0011 -0.1008
    1W        W53370  28.510  23.675   0.947 -0.2133 -0.1587 -0.3471
    1W        W53371  10.130  11.841   7.732 -0.1332  0.0157 -0.1625
    1W        W53372  27.783   4.852   6.371 -0.0016  0.2245  0.0453
    1W        W53373  18.952  12.960   9.204  0.1587  0.4598  0.0950
    1W        W53374   4.225  23.219   8.040  0.1987 -0.1377  0.1340
    1W        W53375  19.344   4.796   7.963 -0.0408  0.2111  0.1650
    1W        W53376  24.663  14.307   8.850  0.0645  0.0275 -0.1276
    1W        W53377  19.672  21.526   1.438  0.0195  0.1233  0.1960
    1W        W53378  15.535  10.442   1.325 -0.0767  0.0335 -0.0829
    1W        W53379  24.895  12.371   7.285  0.0138  0.1052  0.1118
    1W        W53380  16.675   9.640   8.304 -0.0914  0.1828  0.0924
    1W        W53381  29.323   7.922   7.793  0.1947  0.1759 -0.0720
    1W        W53382  29.061   8.960   0.825  0.1703  0.2523 -0.1125
    1W        W53383   5.691  21.348   7.165 -0.2248 -0.3757 -0.0849
    1W        W53384   5.394  28.128   2.484 -0.1028  0.0101 -0.3445
    1W        W53385  24.962   4.565   7.377  0.2326  0.1179  0.0919
    1W        W53386  16.141  21.930   2.212  0.1642 -0.2077 -0.0229
    1W        W53387   1.573  18.866   0.195 -0.4981 -0.1094  0.0083
    1W        W53388   4.848  14.818   0.224 -0.2442  0.0330 -0.3327
    1W        W53389  29.215  26.397   7.607 -0.3047  0.1986  0.0222
    1W        W53390  13.158  19.253   8.601 -0.0799 -0.0177 -0.3320
    1W        W53391   2.285  11.187   5.641  0.1230  0.3343 -0.1226
    1W        W53392   5.262  17.604   6.680  0.1455  0.1633  0.0058
    1W        W53393   6.781  15.052   1.070  0.0495 -0.0952 -0.2066
    1W        W53394   5.026  29.326   9.631 -0.0490 -0.0233  0.3251
    1W        W53395  26.322   0.531   8.370 -0.0966 -0.0432 -0.3901
    1W        W53396  11.484  10.443   7.920  0.1928 -0.0741  0.0930
    1W        W53397   7.319  23.379   2.232 -0.3036 -0.1223 -0.2024
    1W        W53398  14.119  24.423   0.640  0.0095  0.1769  0.1872
    1W        W53399  18.339  26.422   2.317 -0.0060 -0.0329 -0.1089
    1W        W53400   7.093  18.703   0.923  0.1144  0.0986 -0.0657
    1W        W53401  11.355   3.345   0.624  0.1303 -0.1718 -0.0093
    1W        W53402   0.763   2.712   6.677 -0.1262 -0.0722  0.0353
    1W        W53403   6.359  22.858   1.850 -0.0604  0.3316  0.1247
    1W        W53404  22.500  26.752   7.071  0.0590 -0.0693 -0.1326
    1W        W53405  14.580  18.856   2.333 -0.0818 -0.0654  0.0719
    1W        W53406   2.209  21.432   9.024  0.4085  0.4504  0.1540
    1W        W53407  11.309   4.251   8.816 -0.1581 -0.0307 -0.1798
    1W        W53408  19.573   9.013   8.604 -0.0838 -0.0197  0.1724
    1W        W53409   0.553  22.505   9.672 -0.1525 -0.2526  0.2218
    1W        W53410  11.393  12.425   8.032 -0.0341 -0.0284  0.3571
    1W        W53411   6.445  11.945   1.771 -0.0448 -0.1181 -0.0449
    1W        W53412  22.666   9.533   0.630  0.1900 -0.3174 -0.0649
    1W        W53413  24.010  28.752   0.897 -0.2923  0.2075 -0.0176
    1W        W53414  13.092   0.077   2.208  0.1398 -0.1746  0.0048
    1W        W53415   2.536   0.724   2.160 -0.1888 -0.1201  0.1602
    1W        W53416   9.610  16.122   8.810  0.3098  0.2165  0.1114
    1W        W53417   7.172  28.458   1.566 -0.0922 -0.0312 -0.0850
    1W        W53418  14.878  21.572   2.155  0.2106 -0.1973 -0.1461
    1W        W53419  20.229   6.980   3.564  0.1402 -0.1400  0.0793
    1W        W53420  14.121  18.784   0.664  0.1716 -0.0033  0.1387
    1W        W53421  24.840  26.566   7.820  0.0710 -0.0533  0.1958
    1W        W53422  17.916   6.914   0.476  0.4152 -0.0750 -0.3388
    1W        W53423  23.976  19.094   6.808  0.1029 -0.3525  0.0164
    1W        W53424  26.494   8.619   0.594 -0.0316  0.1463 -0.0155
    1W        W53425  16.261   6.402   2.286 -0.0176 -0.4399 -0.0941
    1W        W53426  10.369  21.745   9.395  0.3323 -0.1013 -0.1770
    1W        W53427   2.753  17.637   1.843 -0.2245  0.0347 -0.0628
    1W        W53428  12.348  22.533   8.185  0.0816  0.1341 -0.1407
    1W        W53429  14.050  25.326   1.438 -0.0470  0.1991  0.3875
    1W        W53430   1.063   1.329   8.367 -0.1893  0.0899 -0.1185
    1W        W53431  12.700   9.089   2.689  0.0001  0.0298  0.1688
    1W        W53432  16.553  14.833   1.752 -0.1276 -0.1550 -0.2020
    1W        W53433   4.790   8.243   8.630  0.0351  0.1132 -0.2069
    1W        W53434   6.269  16.611   7.650 -0.1974 -0.0188  0.1427
    1W        W53435  20.193   7.229   2.808 -0.0612  0.2676  0.0209
    1W        W53436  18.097   1.157   8.932  0.3627 -0.1779 -0.1050
    1W        W53437  13.931  16.975   8.062 -0.0112  0.0038 -0.0974
    1W        W53438  24.665  10.966   0.736 -0.1243  0.2613 -0.3346
    1W        W53439  14.026  27.373   1.171  0.0211 -0.1360  0.0574
    1W        W53440  17.797  26.082   2.929 -0.0945 -0.0579  0.0236
    1W        W53441  24.921  22.469   0.446  0.2484 -0.2352 -0.0958
    1W        W53442   8.339   0.824   9.204  0.0985  0.2025  0.1273
    1W        W53443  17.035   3.626   7.587  0.0112 -0.0545  0.2083
    1W        W53444  25.319  22.865   8.439 -0.0685  0.0697  0.1071
    1W        W53445  15.817  28.514   9.376 -0.0973  0.0587  0.0679
    1W        W53446  28.713   5.350   7.251  0.1881  0.0426 -0.3055
    1W        W53447  16.415   3.270   2.530  0.0072 -0.3715 -0.1175
    1W        W53448   2.792  14.257   1.128 -0.2383 -0.0197 -0.2086
    1W        W53449   9.905  15.885   0.704  0.0011  0.1017  0.1096
    1W        W53450  29.019  25.864   1.106 -0.2273 -0.0430 -0.0212
    1W        W53451  24.579  21.610   2.974  0.2854 -0.2560 -0.0924
    1W        W53452  11.581   8.500   0.652  0.1515  0.0916  0.0551
    1W        W53453  17.716  14.439   9.422 -0.0072  0.2843 -0.0695
    1W        W53454   1.018   6.731   7.878  0.0242  0.0600 -0.0986
    1W        W53455   5.567  11.368   2.538  0.0974  0.3004 -0.0866
    1W        W53456  26.767   8.748   6.695  0.0319 -0.5373 -0.1299
    1W        W53457   0.283   4.837   6.737  0.4287  0.0087  0.1044
    1W        W53458  25.468  11.178   8.389 -0.1110 -0.1137 -0.3828
    1W        W53459  15.401  10.795   9.271  0.1507  0.0348  0.1094
    1W        W53460  12.428   7.259   3.463 -0.0687  0.1273  0.0464
    1W        W53461  18.972   3.203   3.490 -0.2307 -0.0725  0.0122
    1W        W53462   0.128   2.392   2.173 -0.1223  0.1666 -0.1949
    1W        W53463   7.009  18.840   8.102  0.0596 -0.3187 -0.2091
    1W        W53464  27.899  17.547   9.409 -0.4135  0.0823 -0.1945
    1W        W53465  18.338  19.144   1.797 -0.3647  0.3880  0.4915
    1W        W53466   1.352   6.278   6.462 -0.0098  0.1720 -0.2142
    1W        W53467   1.027   7.872   1.798  0.0476  0.0054  0.2258
    1W        W53468  19.595   0.849   2.106 -0.2758 -0.0983  0.0071
    1W        W53469  10.566  21.360   8.614 -0.3187 -0.1145  0.1392
    1W        W53470  10.083   0.432   0.654  0.0269  0.4311 -0.3506
    1W        W53471  25.839   2.378   9.359 -0.0576 -0.1091 -0.0911
    1W        W53472  15.404  24.775   7.728  0.3698  0.1077  0.1826
    1W        W53473  29.055   6.896   8.909  0.1977  0.2307 -0.1462
    1W        W53474   4.225   1.664   0.263 -0.1257  0.4000 -0.1652
    1W        W53475   3.118  25.030   1.974 -0.2999 -0.2452  0.0824
    1W        W53476  19.236   6.121   0.861 -0.0787  0.0942 -0.3448
    1W        W53477  27.994  11.293   8.712  0.3626  0.1216  0.1370
    1W        W53478  14.472  19.320   8.319 -0.3854  0.2152 -0.0573
    1W        W53479  17.325  28.663   9.465 -0.1686 -0.0097  0.1022
    1W        W53480  24.660  27.038   9.555  0.0798  0.0735 -0.0767
    1W        W53481  25.173   8.657   7.444 -0.0221  0.4927  0.0225
    1W        W53482  19.802   5.806   8.926  0.0698  0.1987  0.1577
    1W        W53483   5.260  22.453   6.916  0.2601 -0.7013  0.1680
    1W        W53484   3.143   6.533   0.477  0.1248  0.0853  0.1408
    1W        W53485   5.813   8.890   1.051 -0.0855 -0.0504 -0.0072
    1W        W53486  25.544  14.988   1.858 -0.2813 -0.1299  0.2855
    1W        W53487  20.375  28.129   8.632 -0.0993 -0.3580  0.0008
    1W        W53488  22.268   8.274   1.675 -0.3446 -0.0082 -0.0485
    1W        W53489  25.445  24.664   0.638 -0.1667 -0.1814 -0.1003
    1W        W53490  24.092  19.385   8.676 -0.1108 -0.0007 -0.0610
    1W        W53491  12.313  29.194   0.614  0.1408 -0.3123 -0.3381
    1W        W53492  14.443   4.802   2.912 -0.0239 -0.1171  0.1832
    1W        W53493  11.394  19.891   1.822  0.0110 -0.3317 -0.2039
    1W        W53494  17.392   7.639   7.772 -0.3189  0.0638  0.0050
    1W        W53495  19.972  28.611   6.845 -0.1967 -0.1322  0.2406
    1W        W53496  12.979  12.524   0.645 -0.5076  0.0091  0.0299
    1W        W53497   7.723  17.966   2.022  0.1566  0.1257 -0.0150
    1W        W53498   8.028  19.502   1.651 -0.0597 -0.2012  0.0344
    1W        W53499  22.768   2.368   6.461 -0.1089  0.0358 -0.1510
    1W        W53500   4.486  15.341   2.838  0.2466  0.2518  0.0879
    1W        W53501  13.061  11.081   2.123 -0.0493  0.0365 -0.1170
    1W        W53502  16.633   6.674   0.682  0.1865  0.2604 -0.1735
    1W        W53503  23.260   8.473   9.193  0.2888  0.1821  0.1772
    1W        W53504   2.031   5.118   9.414 -0.1381 -0.2147  0.1553
    1W        W53505  20.619   0.034   0.896  0.1832 -0.1643  0.4771
    1W        W53506   1.072   8.002   6.892  0.1996 -0.1350 -0.3629
    1W        W53507  28.718  22.400   2.134  0.2380 -0.0309 -0.0744
    1W        W53508  20.731  11.709   0.763 -0.0720  0.1971 -0.3503
    1W        W53509  13.469  15.511   2.329  0.1879  0.0277  0.4764
    1W        W53510  19.108  22.254   9.133 -0.0785  0.1837  0.0516
    1W        W53511  17.343   0.611   8.893 -0.0520 -0.0140 -0.1729
    1W        W53512  14.179  11.223   7.800 -0.0113  0.0972 -0.2810
    1W        W53513  10.353  11.329   8.514  0.0733 -0.0168 -0.0352
    1W        W53514   2.354   0.738   1.312  0.0933  0.0227 -0.5119
    1W        W53515  11.167  19.248   7.371 -0.0967  0.2258 -0.4002
    1W        W53516   8.025  13.622   7.993  0.0282  0.0604 -0.1382
    1W        W53517   1.536   9.811   9.504  0.3110  0.0123 -0.1216
    1W        W53518   7.284  13.933   0.530  0.1107  0.0784 -0.1055
    1W        W53519  24.102  19.784   1.818  0.0789 -0.4900 -0.3121
    1W        W53520   0.499  29.154   7.913 -0.1072  0.3143  0.1828
    1W        W53521  13.101   7.825   0.578 -0.1546  0.0811 -0.1475
    1W        W53522  19.883  18.722   7.410  0.0510 -0.0620  0.0389
    1W        W53523  22.598  25.727   0.212 -0.3152 -0.3224  0.0653
    1W        W53524   2.595  20.599   1.607 -0.2252 -0.0664 -0.1298
    1W        W53525  12.530  26.845   2.793 -0.0816  0.1158 -0.0163
    1W        W53526   9.825  21.785   6.848  0.3228 -0.3058 -0.1782
    1W        W53527   6.134   9.959   7.408  0.1108  0.1614  0.1152
    1W        W53528  22.255   0.993   6.511  0.0952 -0.3070 -0.0468
    1W        W53529   8.173  22.571   9.046 -0.0208  0.0166  0.0868
    1W        W53530  25.752  26.887   7.353 -0.1007 -0.3034  0.4196
    1W        W53531   2.927  23.740   7.894 -0.2362  0.0334 -0.0089
    1W        W53532   8.397   4.115   6.682  0.0914  0.2146 -0.1771
    1W        W53533   6.797  16.689   7.181  0.0425 -0.0111 -0.0523
    1W        W53534  16.802  27.595   7.744  0.1688 -0.0834  0.0152
    1W        W53535  24.253   2.231   6.339  0.0066  0.2178  0.2867
    1W        W53536  18.710  21.682   8.956 -0.3431 -0.0001  0.1908
    1W        W53537   4.683  17.997   8.277 -0.0908 -0.0264  0.0899
    1W        W53538  20.272  13.275   6.878 -0.1692  0.1920  0.1377
    1W        W53539  19.595  22.266   9.368 -0.0533  0.2205 -0.1451
    1W        W53540  27.102  28.822   6.810  0.3188  0.0424 -0.1739
    1W        W53541   4.619  22.295   1.381  0.1111 -0.0162  0.1706
    1W        W53542  11.925  28.372   1.040 -0.5038  0.2704  0.1409
    1W        W53543   7.507  18.212   9.277 -0.2075  0.0913  0.0534
    1W        W53544   3.487   0.469   6.626 -0.1697 -0.2189  0.4506
    1W        W53545  13.353   5.997   8.508 -0.2071 -0.0534 -0.4093
    1W        W53546  11.665  22.980   8.263 -0.1882  0.3300 -0.2311
    1W        W53547  15.960   5.442   3.894 -0.0391 -0.0245  0.0872
    1W        W53548  25.141  24.566   9.431  0.1498  0.0049  0.1688
    1W        W53549  19.471   5.799   2.230  0.0623  0.2705 -0.1366
    1W        W53550  22.424  25.248   9.029 -0.3496 -0.0879  0.1514
    1W        W53551   2.803  28.684   7.446 -0.1147 -0.1160  0.1216
    1W        W53552   4.755  13.820   7.282  0.0505 -0.0834  0.3100
    1W        W53553  25.346   6.781   1.996 -0.2098 -0.1660  0.0976
    1W        W53554  24.394  23.928   6.698  0.1675 -0.1306 -0.0099
    1W        W53555   6.165  19.890   2.066  0.0410 -0.0596  0.1312
    1W        W53556  27.350   4.991   7.905  0.0653  0.0184 -0.0579
    1W        W53557  11.529  26.541   1.909  0.0198  0.1175  0.1350
    1W        W53558  18.716   8.379   7.809 -0.1972  0.1264 -0.1497
    1W        W53559   6.320  21.478   0.670 -0.1070 -0.2397  0.1178
    1W        W53560  26.941  11.695   7.200 -0.0287 -0.1098  0.1531
    1W        W53561  26.351  16.626   0.944 -0.4788  0.1797  0.3793
    1W        W53562   8.251  22.823   0.359 -0.1191  0.1050 -0.0803
    1W        W53563   1.575  15.873   2.039  0.0843  0.0789 -0.2117
    1W        W53564   1.874   0.995   0.363  0.0771  0.0131 -0.2053
    1W        W53565  13.899   1.594   0.416 -0.0834 -0.0333 -0.2288
    1W        W53566  24.597  19.183   8.730 -0.1034 -0.0256 -0.0930
    1W        W53567  12.778  28.126   1.655  0.0590 -0.1416 -0.0957
    1W        W53568   0.490  28.482   1.098 -0.0173 -0.1895 -0.1762
    1W        W53569  10.139  20.694   7.055 -0.0862  0.2043  0.0747
    1W        W53570  20.596  28.278   9.611 -0.1433  0.2595 -0.3600
    1W        W53571   2.922   9.725   7.763  0.2193  0.2574  0.1508
    1W        W53572  22.745   8.894   7.624 -0.2007  0.0643  0.1495
    1W        W53573  26.586  25.161   6.778  0.0071  0.3106  0.0819
    1W        W53574  17.443  24.385   0.779  0.0538 -0.2474 -0.1706
    1W        W53575  19.236  23.323   7.215  0.1885 -0.0720  0.0355
    1W        W53576   3.358  10.668   9.519  0.0067  0.2860  0.3263
    1W        W53577  23.116   5.696   0.318 -0.2123  0.1396 -0.0389
    1W        W53578  20.002   1.039   7.558  0.0746  0.0425  0.0037
    1W        W53579  18.220  22.381   8.962  0.1904 -0.3342  0.1022
    1W        W53580   7.135  15.110   8.304  0.0641  0.1469 -0.1320
    1W        W53581   7.597   5.450   2.800  0.1624  0.0284 -0.1369
    1W        W53582  14.018  28.819   1.656 -0.1320  0.1869  0.0068
    1W        W53583  26.944  14.778   8.939 -0.0409  0.1456 -0.0365
    1W        W53584  11.393   8.082   0.087  0.0455  0.1520 -0.0539
    1W        W53585   8.190  17.390   2.774 -0.1473 -0.0117 -0.0865
    1W        W53586  20.942  29.277   2.855  0.1934 -0.0277  0.1339
    1W        W53587   9.904  27.905   7.874 -0.2530  0.2451 -0.1023
    1W        W53588   2.156  18.197   9.608  0.0765 -0.1216 -0.0581
    1W        W53589  19.169   8.192   7.620 -0.0278 -0.3647 -0.1048
    1W        W53590   5.534  19.289   0.536  0.0236 -0.0324 -0.1531
    1W        W53591   5.356   2.795   8.934  0.0903 -0.0805 -0.2909
    1W        W53592  25.551   3.977   8.595 -0.2542  0.1715  0.1012
    1W        W53593  22.805   4.988   0.655 -0.2476 -0.1583 -0.1529
    1W        W53594  19.766   7.185   9.283 -0.2354 -0.2102 -0.2689
    1W        W53595   2.871   7.227   0.953 -0.1944  0.0166 -0.1836
    1W        W53596  15.943  19.399   8.654 -0.1831  0.0368  0.0755
    1W        W53597  26.881  25.550   1.531 -0.1058  0.0452 -0.2226
    1W        W53598  29.353   3.304   6.737 -0.0356 -0.1511  0.0472
    1W        W53599   5.842   7.889   2.444 -0.0172 -0.0043  0.2030
    1W        W53600  29.238  10.240   6.973  0.1449 -0.1206  0.2277
    1W        W53601  20.322  27.358   0.974 -0.0700 -0.1463 -0.2909
    1W        W53602   8.882  24.021   8.830  0.0085 -0.2995  0.1410
    1W        W53603  11.702   1.513   0.323 -0.1374 -0.3933  0.1884
    1W        W53604  24.007  19.527   0.306  0.3045 -0.0809  0.0052
    1W        W53605   4.732  28.587   2.819 -0.0570 -0.0039 -0.0153
    1W        W53606   8.647   8.943   8.052  0.3786 -0.1872  0.2673
    1W        W53607   8.422  16.071   2.191 -0.0116 -0.1573  0.1663
    1W        W53608  24.894  16.265   9.425 -0.0215  0.2678 -0.0440
    1W        W53609  10.204   3.297   3.035  0.0123 -0.0470 -0.1075
    1W        W53610   4.785  29.331   8.735 -0.0831 -0.2661 -0.3230
    1W        W53611   1.746  26.806   1.271 -0.1792  0.1436 -0.0325
    1W        W53612  21.558   9.626   0.641  0.0631  0.1880 -0.3166
    1W        W53613   0.339  19.407   1.596 -0.4682  0.1600  0.0433
    1W        W53614   5.999   6.160   9.508 -0.0466 -0.2353 -0.1035
    1W        W53615  18.747  15.052   1.581 -0.1673  0.0491  0.2279
    1W        W53616   7.790   3.410   0.321  0.0685 -0.0771 -0.1965
    1W        W53617  21.781   1.794   7.808 -0.0569 -0.1539  0.0390
    1W        W53618  23.573  16.331   0.299  0.1769 -0.4864 -0.2263
    1W        W53619   9.961  24.882   8.955 -0.3164 -0.0505 -0.3834
    1W        W53620  13.317  21.641   7.607  0.1196 -0.0257  0.0673
    1W        W53621  24.926  10.611   1.578  0.0011 -0.4433  0.0636
    1W        W53622   0.041  14.946   6.627  0.1201  0.2497  0.1036
    1W        W53623  16.833  17.467   2.425 -0.1160  0.1186  0.0934
    1W        W53624  14.028  27.148   8.008  0.0579  0.2015  0.0344
    1W        W53625   6.086  27.567   3.118 -0.1239  0.1017 -0.0799
    1W        W53626  10.766  13.989   7.886 -0.0878  0.0576  0.3088
    1W        W53627  16.890   6.245   1.096  0.2988  0.1098  0.4318
    1W        W53628  23.677  21.373   8.467 -0.2418  0.2665  0.3826
    1W        W53629  26.161   5.209   8.594 -0.0149 -0.1125  0.0876
    1W        W53630  24.553  19.850   0.214 -0.1841  0.1339 -0.0448
    1W        W53631   7.451   8.825   0.739 -0.0549 -0.0282  0.0526
    1W        W53632  25.370   8.218   9.419 -0.0004  0.2568 -0.0091
    1W        W53633  27.530  12.793   3.337 -0.3007 -0.0775  0.2329
    1W        W53634  10.073   5.557   2.560 -0.1076 -0.1347 -0.1057
    1W        W53635  21.170  15.278   7.552 -0.1041  0.1649 -0.1110
    1W        W53636  21.673  23.228   0.196  0.2453 -0.2512 -0.0930
    1W        W53637  23.733   5.293   6.611  0.1313 -0.1956  0.1087
    1W        W53638  19.999   8.350   8.623  0.0777  0.2753 -0.0611
    1W        W53639   3.456  29.195   6.762  0.3559 -0.0310  0.1830
    1W        W53640  15.010   6.607   1.012  0.1000 -0.1206  0.0877
    1W        W53641   3.661   0.818   2.876 -0.1953  0.0114 -0.0817
    1W        W53642  17.110   4.405   8.397 -0.0659  0.2660 -0.1143
    1W        W53643  10.181   8.283   3.468  0.0882  0.1735  0.2136
    1W        W53644  17.364  25.840   8.130 -0.0893  0.2483 -0.2610
    1W        W53645  10.414   1.841   2.764 -0.0617 -0.1460 -0.1878
    1W        W53646   2.975   5.563   5.739  0.3058 -0.0895  0.1388
    1W        W53647  17.244   8.603   2.295  0.1329  0.0719 -0.1227
    1W        W53648  16.108  27.196   0.795  0.1718  0.1921 -0.2374
    1W        W53649  23.059  13.305   7.451  0.1251 -0.0140  0.3148
    1W        W53650  18.821  20.382   2.095  0.0756 -0.0522 -0.3162
    1W        W53651   9.960  13.889   0.690 -0.0300  0.0566 -0.1284
    1W        W53652   4.261  23.394   0.294 -0.1025 -0.0788 -0.1639
    1W        W53653  23.857  26.802   1.139  0.0029  0.1540  0.2208
    1W        W53654   2.992   1.418   0.987  0.3391 -0.1904 -0.0249
    1W        W53655   0.712  19.761   1.563  0.1279 -0.0218  0.0976
    1W        W53656  23.023   8.386   7.867  0.1554 -0.1793  0.0210
    1W        W53657   6.071   9.704   6.422  0.1206 -0.0006  0.0800
    1W        W53658   0.935   9.824   2.102  0.1971  0.3169  0.1946
    1W        W53659  22.035   0.476   7.684  0.1359  0.2127  0.3814
    1W        W53660   2.839  21.591   1.043 -0.0672 -0.1921  0.5552
    1W        W53661  14.610   5.270   8.903  0.0741 -0.0778 -0.2515
    1W        W53662  17.927  22.928   8.908  0.0813 -0.2155  0.0839
    1W        W53663  13.688  27.287   8.978  0.0974  0.1832  0.0715
    1W        W53664   4.898  21.471   8.115 -0.1430 -0.1478 -0.0087
    1W        W53665  25.377  26.686   1.249 -0.1207  0.3979  0.1579
    1W        W53666  12.913   6.378   2.981 -0.1470 -0.2856 -0.0879
    1W        W53667  15.839   2.482   9.668 -0.0660 -0.0386  0.1381
    1W        W53668  24.861   6.514   2.079  0.0281 -0.0772  0.1830
    1W        W53669  16.805  27.154   3.133 -0.1087 -0.0842  0.1623
    1W        W53670  11.906  22.867   2.854 -0.0743  0.4245 -0.0073
    1W        W53671  23.391  17.683   0.624  0.1102 -0.2697  0.0889
    1W        W53672   8.815  25.702   7.409 -0.1200 -0.1426  0.0268
    1W        W53673  23.617  10.021   2.731  0.2262 -0.1944  0.0061
    1W        W53674  15.478  27.741   2.348  0.0545  0.0691  0.3514
    1W        W53675   2.849   2.990   7.792 -0.0808 -0.0760  0.1669
    1W        W53676  13.283   8.655   1.174  0.0778 -0.0020 -0.2895
    1W        W53677  18.095  19.261   8.781  0.0215 -0.1744  0.2598
    1W        W53678  22.283  17.397   0.929  0.0525  0.3935  0.2506
    1W        W53679  25.271  24.647   6.883 -0.1589 -0.3616 -0.1185
    1W        W53680  28.484  16.116   1.490  0.0084  0.1036 -0.1156
    1W        W53681   5.286   4.461   7.498  0.1875  0.0351  0.1548
    1W        W53682  23.137  23.010   9.648  0.1979 -0.0974 -0.1573
    1W        W53683  20.083   3.622   8.994  0.4219  0.3267 -0.1148
    1W        W53684   8.883  19.515   1.699  0.0828 -0.0797  0.0872
    1W        W53685  23.212  23.323   9.175 -0.0078  0.1301 -0.2491
    1W        W53686   8.910   0.880   9.550  0.2228  0.3037  0.0276
    1W        W53687  29.173   5.511   1.859 -0.1775  0.4187  0.1440
    1W        W53688  25.418   1.457   0.725 -0.1630 -0.0886 -0.3244
    1W        W53689   1.309  26.044   7.326  0.0398  0.0157 -0.1163
    1W        W53690  11.672   8.853   9.208  0.1246 -0.1605  0.0653
    1W        W53691   3.148  12.061   3.120  0.0660 -0.1421  0.0280
    1W        W53692   5.721  23.132   6.462  0.0667 -0.0158 -0.4228
    1W        W53693  21.484  21.668   0.767 -0.1354 -0.1607 -0.0762
    1W        W53694  20.578  10.043   7.872 -0.0609  0.2411 -0.0530
    1W        W53695  10.136   4.597   0.545 -0.1900  0.0024 -0.1549
    1W        W53696  13.808  17.256   9.458  0.2629 -0.0390  0.1757
    1W        W53697  14.496  19.134   0.512  0.0431 -0.2525 -0.0777
    1W        W53698  15.074   2.946   9.484  0.2503 -0.0541  0.0224
    1W        W53699  24.862   5.225   1.670  0.1473 -0.1126  0.2242
    1W        W53700  13.350  12.914   9.251  0.2253 -0.0422  0.0785
    1W        W53701   1.657  26.119   0.582  0.2416  0.0405 -0.0676
    1W        W53702   5.717  12.606   9.075  0.1846  0.0614 -0.0564
    1W        W53703  16.698   5.409   1.822  0.2993 -0.3246 -0.2101
    1W        W53704   3.787  23.581   7.901 -0.0157  0.3781  0.2201
    1W        W53705  20.053   2.884   3.052  0.2578 -0.1693  0.1103
    1W        W53706  20.466  25.440   0.965 -0.0345  0.1478  0.1524
    1W        W53707  16.734  24.786   2.540 -0.0120 -0.1740 -0.3045
    1W        W53708   5.674  25.314   8.705  0.4662 -0.0000 -0.5480
    1W        W53709  12.339  17.269   7.973 -0.2157 -0.1799 -0.0526
    1W        W53710  26.479  29.284   0.172 -0.1449  0.0153  0.1880
    1W        W53711  14.942  16.763   1.365  0.0239  0.0655 -0.2996
    1W        W53712   8.519   3.323   1.486  0.0925  0.2018  0.0572
    1W        W53713  14.051   1.124   3.521 -0.0501  0.0903  0.1467
    1W        W53714  17.324  19.039   0.021 -0.5612 -0.2803 -0.1551
    1W        W53715  13.609  17.148   8.431 -0.3086  0.0050  0.1143
    1W        W53716  10.153  16.196   7.974 -0.0296 -0.0614 -0.1341
    1W        W53717   4.491  23.829   0.326 -0.0110  0.1853  0.0216
    1W        W53718  25.099  11.608   1.783  0.0781  0.1107  0.0001
    1W        W53719  23.783   4.064   0.940 -0.4214  0.1307 -0.1440
    1W        W53720  12.607  24.711   8.137  0.0681 -0.1558 -0.3107
    1W        W53721  14.201   1.318   0.042 -0.0154 -0.1625  0.5654
    1W        W53722  10.974  10.416   9.231 -0.2276  0.1022  0.0851
    1W        W53723  26.355  19.270   9.289  0.2117 -0.3005  0.0662
    1W        W53724  15.467   7.202   7.906 -0.0198 -0.1056  0.4583
    1W        W53725   6.187   9.457   0.143 -0.1486  0.2908  0.3333
    1W        W53726   2.530  15.181   1.333  0.2141  0.1547 -0.0093
    1W        W53727  25.264   7.200   5.720 -0.0491  0.1227 -0.0563
    1W        W53728   9.561   4.552   0.563  0.0882 -0.1569 -0.0786
    1W        W53729  28.958  24.621   2.439  0.0294 -0.0879  0.2410
    1W        W53730  25.540   7.963   0.959  0.1810 -0.1449 -0.0282
    1W        W53731  18.619  28.058   6.562  0.2629  0.0723  0.3993
    1W        W53732   9.668  22.675   1.273 -0.0677  0.1714  0.0458
    1W        W53733  15.292   8.573   2.738 -0.1021  0.0388  0.1317
    1W        W53734  18.892   2.909   8.761 -0.0216 -0.4420 -0.0872
    1W        W53735   1.485  23.707   2.089  0.2353 -0.2922 -0.0238
    1W        W53736  29.101  15.503   9.384 -0.0129 -0.3176 -0.2327
    1W        W53737  19.412  11.223   1.989  0.0923 -0.2149 -0.1176
    1W        W53738   3.278  12.232   6.420  0.0341 -0.1185 -0.0599
    1W        W53739  10.123  23.915   0.951  0.1154  0.1938  0.2537
    1W        W53740   8.304  12.167   2.185 -0.0359 -0.0033 -0.1055
    1W        W53741  23.684  28.732   7.664  0.2236 -0.3240  0.0893
    1W        W53742  21.612   1.174   2.094  0.1033 -0.2325 -0.1854
    1W        W53743   1.934  27.954   9.198  0.2239  0.0055  0.1891
    1W        W53744  21.917  22.224   7.284  0.1104  0.1328  0.0719
    1W        W53745   2.576  16.176   1.908  0.3031 -0.3845 -0.1824
    1W        W53746  27.262  10.567   8.790  0.1096  0.0790 -0.0634
    1W        W53747  25.856   5.623   1.134  0.1587  0.1813  0.0479
    1W        W53748   4.934  27.730   2.950 -0.2807  0.2670  0.0156
    1W        W53749   6.389  23.363   6.797 -0.1338 -0.1034 -0.2123
    1W        W53750   7.815  21.680   8.076 -0.0284 -0.0332 -0.1375
    1W        W53751  25.462  21.424   0.404  0.0766  0.0800 -0.2002
    1W        W53752  13.008  26.181   9.566 -0.0233  0.0794  0.0376
    1W        W53753   5.563   9.222   2.166  0.2954 -0.0761 -0.0939
    1W        W53754  25.124  26.176   3.106  0.0773  0.0188 -0.0943
    1W        W53755  27.551   2.135   0.827  0.2639  0.3929 -0.1521
    1W        W53756   5.647  27.092   9.634  0.1352  0.0840  0.2403
    1W        W53757   2.590   5.628   1.634  0.2607 -0.0076  0.2638
    1W        W53758  15.550   6.704   2.683 -0.1365 -0.2777  0.0183
    1W        W53759  20.649  25.715   0.466  0.0898 -0.3311  0.0637
    1W        W53760  27.505  21.407   7.848 -0.0684  0.0881  0.0715
    1W        W53761  28.893  26.789   2.605 -0.1642  0.2361  0.0785
    1W        W53762   2.915   5.444   6.545  0.4551  0.0200  0.1822
    1W        W53763  22.956  19.443   1.361 -0.0478  0.5541 -0.1500
    1W        W53764  18.382  27.778   8.958  0.2417 -0.2187 -0.1200
    1W        W53765  13.487  20.798   2.038  0.0941  0.1788  0.1977
    1W        W53766  12.271  15.431   8.690  0.1089  0.1647 -0.1891
    1W        W53767   1.239   6.490   2.159 -0.2468  0.4238  0.3283
    1W        W53768  18.983  18.278   9.105 -0.1551  0.1272  0.2890
    1W        W53769  17.748   8.873   2.214 -0.0371  0.0564  0.1074
    1W        W53770  15.959  18.137   9.554  0.0044  0.0037  0.0232
    1W        W53771   4.444  20.406   0.310  0.1853  0.1639 -0.2514
    1W        W53772  13.693  13.769   1.506  0.0214  0.3774  0.2382
    1W        W53773  18.035  19.835   0.597 -0.1839  0.1038 -0.0938
    1W        W53774  16.937   4.518   2.762 -0.0535  0.1203  0.3904
    1W        W53775  28.987   7.705   6.804  0.0850  0.2225  0.0508
    1W        W53776  27.856  19.560   6.219 -0.3688 -0.1002 -0.0763
    1W        W53777   5.858  23.428   2.278  0.1278 -0.3108  0.1248
    1W        W53778   1.013   6.692   1.088 -0.0967 -0.0628 -0.0866
    1W        W53779   5.760  28.423   8.074 -0.0203 -0.0790 -0.1616
    1W        W53780  23.264  24.016   2.795 -0.2644 -0.1036  0.2114
    1W        W53781  19.046   0.681   2.087  0.1199 -0.1325 -0.0693
    1W        W53782  13.391   2.433   2.942 -0.1270 -0.1201 -0.0501
    1W        W53783   7.134  20.749   5.764 -0.0628  0.2423  0.2117
    1W        W53784  26.921  27.656   7.983  0.0609 -0.0535  0.1718
    1W        W53785  24.404  23.003   0.796  0.0661 -0.0385  0.3100
    1W        W53786  25.627   2.944   5.925  0.0624  0.2235 -0.0071
    1W        W53787  10.224  18.944   1.792  0.1158 -0.3191  0.1612
    1W        W53788  22.145   8.652   7.820 -0.2217  0.1691 -0.4970
    1W        W53789   0.806  22.407   6.980 -0.2766  0.0978 -0.4318
    1W        W53790  19.385  19.530   1.177  0.0040 -0.1863  0.0208
    1W        W53791   2.510  26.164   2.983  0.2106 -0.2695 -0.1308
    1W        W53792  19.355   0.656   1.711 -0.0556 -0.0211  0.0654
    1W        W53793   7.576   7.295   9.482  0.1382 -0.4136  0.0027
    1W        W53794  14.579   4.244   4.261 -0.0689  0.2585  0.2132
    1W        W53795   3.710   6.352   7.377 -0.0034 -0.3362 -0.3239
    1W        W53796  27.512   3.553   2.207  0.3285 -0.1947  0.1303
    1W        W53797   3.886   9.766   1.800 -0.3597 -0.2374  0.1338
    1W        W53798   2.950   3.220   0.447 -0.1106  0.1585  0.0205
    1W        W53799  16.148  18.637   7.987  0.0500  0.2593  0.1338
    1W        W53800   4.831  19.864   2.109  0.2368  0.1988  0.0687
    1W        W53801  14.251  26.777   7.375  0.3433 -0.1304 -0.2776
    1W        W53802   0.534  24.791   2.605 -0.1075 -0.0029 -0.2172
    1W        W53803   1.433  11.170   6.247 -0.0361 -0.0667 -0.0252
    1W        W53804  22.949   5.838   2.223 -0.0654 -0.0032  0.5801
    1W        W53805  12.986   2.222   9.134 -0.0682 -0.2910  0.0534
    1W        W53806  29.087  15.706   1.750  0.2231  0.0483  0.2300
    1W        W53807   2.675  23.362   0.910 -0.1267  0.1190 -0.0835
    1W        W53808   3.834  14.009   6.663  0.1285 -0.2852 -0.0643
    1W        W53809   0.265   4.613   0.840 -0.0106 -0.0288  0.3609
    1W        W53810  11.968  10.564   2.705  0.0754 -0.1248  0.2229
    1W        W53811  23.949   0.148   7.162  0.1762 -0.0765  0.2751
    1W        W53812  29.275  26.720   0.443  0.0817  0.0076  0.0874
    1W        W53813   1.407  13.483   8.961 -0.1768  0.4055  0.2673
    1W        W53814  19.658   3.536   2.254  0.0593  0.0290 -0.2295
    1W        W53815  28.328   4.829   8.222  0.1623 -0.1079  0.0559
    1W        W53816   5.801   3.171   7.119 -0.0730 -0.0652 -0.1789
    1W        W53817  28.995   8.903   8.106 -0.1285 -0.1068 -0.1561
    1W        W53818   3.682   1.324   7.887 -0.1616  0.0669  0.0906
    1W        W53819   6.783  19.016   2.138 -0.2354  0.3185  0.0465
    1W        W53820   7.038   9.210   0.886 -0.0803 -0.0009  0.0698
    1W        W53821  12.801   8.040   8.527 -0.0788  0.1946  0.1641
    1W        W53822  15.736  24.420   8.585  0.0872 -0.2239 -0.2902
    1W        W53823  27.576   4.524   1.015  0.3924  0.1243  0.0411
    1W        W53824   6.111   0.317   2.856  0.1035  0.1740 -0.1698
    1W        W53825  10.612   1.337   0.917  0.4837 -0.0358 -0.1967
    1W        W53826   3.051  22.160   6.984 -0.0248 -0.0752  0.0990
    1W        W53827  24.174  25.264   8.011 -0.3929  0.2651 -0.1864
    1W        W53828  11.037   2.017   1.407 -0.0011 -0.2174  0.2178
    1W        W53829  29.020   8.799   5.785 -0.0901 -0.2421  0.2107
    1W        W53830   0.364  11.581   7.751  0.2097  0.4281  0.1238
    1W        W53831   5.109   7.785   7.066  0.2421 -0.0414  0.0477
    1W        W53832   9.580  14.334   6.795  0.0496 -0.2871  0.2772
    1W        W53833  18.241   9.376   7.760  0.0355 -0.0157  0.3416
    1W        W53834  18.795   7.659   3.182  0.0088  0.2996  0.1545
    1W        W53835   6.052   6.613   8.158  0.3116  0.2253 -0.2237
    1W        W53836   5.264  26.292   0.876  0.3302 -0.2713  0.0359
    1W        W53837   3.766  21.673   1.141  0.2286  0.0378 -0.1042
    1W        W53838  10.367  27.356   0.076 -0.1556 -0.0248 -0.2984
    1W        W53839   6.358  18.151   9.500 -0.1642 -0.0097  0.2928
    1W        W53840  12.857  16.707   9.179 -0.1159  0.0080  0.3668
    1W        W53841  15.285  23.428   6.727  0.0270  0.3282 -0.0509
    1W        W53842   6.289  23.903   8.958  0.1029  0.0976  0.1533
    1W        W53843  10.692   6.674   2.118 -0.3061 -0.1658  0.1814
    1W        W53844  23.838  25.414   2.771 -0.2406  0.3446 -0.3074
    1W        W53845  15.266   2.129   0.975 -0.1335  0.0497 -0.0825
    1W        W53846  17.138  18.063   9.436 -0.3835  0.0327 -0.0928
    1W        W53847  22.530  24.906   2.463 -0.0471  0.0402 -0.0737
    1W        W53848  23.339  22.495   7.220  0.1472  0.0346  0.2932
    1W        W53849   5.505  10.180   8.955  0.0943  0.2257  0.0272
    1W        W53850  23.688   6.247   8.751  0.0731 -0.1058 -0.2378
    1W        W53851  27.401  17.290   3.115  0.1917 -0.2670 -0.1208
    1W        W53852   9.049   5.079   1.390 -0.2003  0.1100 -0.2895
    1W        W53853  20.993  28.426   8.052  0.2096  0.0501 -0.0163
    1W        W53854  21.558  27.631   7.597  0.1068 -0.3823  0.4367
    1W        W53855  16.329  21.504   1.255  0.1873 -0.1571 -0.1647
    1W        W53856  26.491  23.791   9.596 -0.2545 -0.1157  0.2577
    1W        W53857   3.492  13.716   1.953 -0.2622 -0.0282 -0.0722
    1W        W53858  26.775   3.441   7.054  0.1432  0.2859 -0.2212
    1W        W53859  12.646   2.105   3.517  0.1143 -0.1958 -0.2681
    1W        W53860   9.925   5.731   6.794 -0.0604  0.1420  0.1917
    1W        W53861  24.521   4.461   0.489 -0.0643  0.1755  0.0255
    1W        W53862  27.992   1.005   1.598  0.1057  0.4711 -0.3084
    1W        W53863  22.620  20.124   9.527 -0.1522 -0.1150  0.1426
    1W        W53864  28.885  13.012   8.776  0.1726  0.1020  0.1042
    1W        W53865  22.100   5.717   2.384  0.1996 -0.0358  0.0081
    1W        W53866  25.911  10.822   0.512  0.0703 -0.2734 -0.3050
    1W        W53867  19.407  26.978   3.126  0.0909 -0.0261 -0.0555
    1W        W53868  10.935  17.628   8.765  0.1741  0.0819 -0.2499
    1W        W53869   9.397   4.171   1.405 -0.1623  0.3251 -0.3433
    1W        W53870  19.948  11.426   9.552 -0.4802  0.0436  0.1937
    1W        W53871   3.684   5.995   0.564 -0.1608  0.2066 -0.3833
    1W        W53872   3.056   8.689   2.416  0.0498 -0.0374  0.0878
    1W        W53873   5.422  14.482   0.866  0.1868 -0.0897 -0.0762
    1W        W53874  16.128  24.990   3.223 -0.0996  0.2264  0.3136
    1W        W53875  22.568  10.730   7.893 -0.3381 -0.1998 -0.0094
    1W        W53876  25.123   6.105   2.105 -0.0363  0.2401 -0.0881
    1W        W53877   5.705  16.700   7.780 -0.1756 -0.1748 -0.1592
    1W        W53878  18.469  19.956   1.075  0.1550  0.2148  0.1120
    1W        W53879  14.667   5.978   3.046  0.0686  0.0804 -0.3990
    1W        W53880  24.842   4.917   9.384  0.0061  0.2754  0.1480
    1W        W53881  14.930   8.959   9.305  0.2244 -0.3103  0.0969
    1W        W53882  20.576  16.649   7.152  0.0693  0.0066  0.2833
    1W        W53883   0.414  22.287   7.874  0.2309  0.1308  0.1386
    1W        W53884  14.550  24.364   7.118 -0.3650 -0.2044  0.1306
    1W        W53885   8.473  18.165   2.087  0.0055 -0.1142 -0.1811
    1W        W53886  13.301  10.602   2.438  0.2794 -0.0438  0.1769
    1W        W53887  10.587  20.128   8.720 -0.1414  0.1736  0.3153
    1W        W53888  23.812  16.283   6.250  0.2531 -0.0989  0.0867
    1W        W53889  29.329   8.548   0.185  0.2997  0.1307  0.0081
    1W        W53890  10.346  26.627   8.011 -0.0204  0.0539  0.2016
    1W        W53891  16.495   3.608   8.983  0.3171 -0.1259 -0.0614
    1W        W53892  29.273   5.815   2.199  0.1732 -0.2826  0.3514
    1W        W53893   9.358  15.903   9.219 -0.1749 -0.0248 -0.1052
    1W        W53894   8.466  26.944   0.219  0.1957  0.0638  0.0905
    1W        W53895  27.521   2.392   1.974  0.1351  0.0522 -0.0683
    1W        W53896   4.577   1.609   9.491 -0.2392  0.0911 -0.0871
    1W        W53897   4.410   2.633   7.151  0.1854  0.1524  0.0659
    1W        W53898  22.416  11.738   0.985 -0.2037  0.3483  0.2441
    1W        W53899  15.310  18.098   8.046 -0.3439 -0.2516  0.1130
    1W        W53900  27.033  21.848   7.559  0.1316  0.1468  0.1898
    1W        W53901   4.956  14.337   1.951 -0.1622  0.0374 -0.0785
    1W        W53902  10.658  27.454   1.568 -0.0366 -0.0681  0.1074
    1W        W53903  20.713   9.445   9.556  0.0849 -0.2199 -0.2749
    1W        W53904  26.426  19.886   7.248 -0.2513  0.0962 -0.2701
    1W        W53905  18.340   8.187   2.350  0.4792 -0.1470  0.0441
    1W        W53906  22.844  28.289   8.005  0.1460  0.0168 -0.0115
    1W        W53907  12.976   1.508   2.473  0.4501 -0.1941 -0.1482
    1W        W53908  10.927  25.234   0.662 -0.2917  0.0248  0.2539
    1W        W53909   9.191  13.113   9.669 -0.2448  0.1817 -0.0115
    1W        W53910  17.420   9.399   1.998 -0.0613 -0.2354 -0.0941
    1W        W53911  20.553  27.428   1.971 -0.1440 -0.0037  0.1817
    1W        W53912   2.658   2.706   2.109  0.0681 -0.0308  0.0287
    1W        W53913   1.862  26.498   9.333 -0.2352 -0.1842  0.2307
    1W        W53914   3.947  18.386   8.948  0.3505  0.0121 -0.2935
    1W        W53915  11.190   8.758   0.806  0.0049 -0.2845  0.3083
    1W        W53916  28.365  19.355   1.998 -0.0875 -0.1072 -0.0725
    1W        W53917  24.802   4.520   2.247  0.2034  0.0921  0.0118
    1W        W53918  23.110  13.327   1.325  0.1697 -0.1448  0.0936
    1W        W53919  13.535  10.928   2.772 -0.0988 -0.0861  0.0305
    1W        W53920   7.154  10.115   8.691 -0.4001 -0.3149 -0.2093
    1W        W53921  26.787  24.536   1.725 -0.0446  0.2679  0.2041
    1W        W53922  24.285  12.709   1.303  0.1147  0.0067 -0.0705
    1W        W53923  21.696  22.018   8.384 -0.1940  0.3418  0.3588
    1W        W53924  19.954   4.875   2.066  0.2391  0.0081 -0.2467
    1W        W53925  17.263   0.980   3.261 -0.1307 -0.2604  0.3572
    1W        W53926   0.799  24.685   8.616  0.0621 -0.0088 -0.1734
    1W        W53927  17.396  22.233   9.326  0.1189  0.1419  0.1507
    1W        W53928   4.965  28.177   2.318  0.4062 -0.1838 -0.2897
    1W        W53929   7.805  13.740   0.589 -0.1548  0.1189  0.0473
    1W        W53930  27.326  27.849   2.592 -0.0994  0.0558 -0.0025
    1W        W53931  28.046  15.400   1.698 -0.0654 -0.2348  0.0450
    1W        W53932  19.312  16.439   1.881 -0.0612 -0.1723 -0.0767
    1W        W53933  21.922  13.623   5.731 -0.1212  0.1039  0.0137
    1W        W53934  14.567   5.349   9.423 -0.1344 -0.0388 -0.2367
    1W        W53935  22.131  25.944   0.315  0.2953 -0.1954  0.0946
    1W        W53936  22.342   5.602   6.139 -0.1485  0.3509 -0.2065
    1W        W53937  25.570   9.916   1.721  0.0184  0.2173  0.1756
    1W        W53938  12.619  19.902   0.535  0.1037 -0.1455  0.2404
    1W        W53939  15.602  16.154   1.745 -0.3789  0.0134  0.0282
    1W        W53940   0.848   7.806   2.660 -0.0598  0.0545 -0.4648
    1W        W53941  25.740  27.992   8.837 -0.0768 -0.2705 -0.2606
    1W        W53942  28.032  27.592   8.501 -0.0010  0.3132 -0.0194
    1W        W53943   3.338  15.016   7.957 -0.0270 -0.3733 -0.3319
    1W        W53944  22.072   2.687   2.086 -0.0426 -0.0512 -0.1676
    1W        W53945  14.453  18.225   1.319  0.2260 -0.3304 -0.0595
    1W        W53946  27.105  23.206   7.821  0.2180 -0.0184 -0.2259
    1W        W53947  11.540  11.514   8.060  0.3308 -0.2347  0.0241
    1W        W53948  13.496   2.193   0.593 -0.2211 -0.2061  0.1429
    1W        W53949  22.692  23.268   1.569  0.2366  0.1820 -0.0712
    1W        W53950  26.756  18.483   8.460 -0.0399 -0.0059 -0.0954
    1W        W53951  24.223  11.452   1.267  0.0709  0.2824 -0.3369
    1W        W53952  23.031  25.583   0.524 -0.4054  0.2121 -0.1810
    1W        W53953  11.910  14.712   1.930 -0.2253  0.0016  0.2199
    1W        W53954  16.507   5.042   7.215 -0.0602 -0.1145 -0.2998
    1W        W53955  28.738  26.140   0.799  0.1624 -0.0710  0.1813
    1W        W53956  24.731   3.961   5.630 -0.0663 -0.1346 -0.3678
    1W        W53957  20.687  17.211   1.996  0.3353  0.1179  0.1006
    1W        W53958  19.648  21.746   7.276 -0.1753 -0.1005 -0.3194
    1W        W53959  11.313  19.104   8.820 -0.1073 -0.0691 -0.0358
    1W        W53960   3.888  24.130   7.807 -0.2040 -0.2406  0.0713
    1W        W53961   3.031  17.655   9.253 -0.1565  0.1264  0.1322
    1W        W53962  14.102  21.553   7.441 -0.1416 -0.0272 -0.0691
    1W        W53963  21.272  12.421   2.534 -0.1636  0.2483 -0.1671
    1W        W53964  23.075  13.802   7.158  0.2416  0.2175 -0.3565
    1W        W53965   0.329  14.431   6.647 -0.1462  0.1339 -0.1178
    1W        W53966  22.334  22.664   8.060 -0.2259  0.1102 -0.0445
    1W        W53967   4.448  27.906   7.353  0.3904 -0.6018  0.1033
    1W        W53968  11.872  20.388   8.973 -0.0831  0.0840  0.2969
    1W        W53969  26.672  14.340   1.979  0.1724  0.1285  0.3637
    1W        W53970  22.031   0.515   1.563 -0.1621  0.0698 -0.1110
    1W        W53971  16.861  21.352   8.217 -0.0298 -0.3644 -0.1857
    1W        W53972  16.359  10.686   8.275 -0.0008  0.2757  0.0089
    1W        W53973   4.492   5.272   2.920 -0.0357  0.0657 -0.2043
    1W        W53974   5.328  23.763   8.091 -0.1157 -0.2241 -0.0977
    1W        W53975  21.151   5.675   7.373 -0.2124 -0.2455  0.0731
    1W        W53976  10.714   4.348   2.518  0.1614 -0.2172 -0.0463
    1W        W53977  11.113   0.563   2.322 -0.1940  0.2126  0.0835
    1W        W53978   9.444   1.097   0.762 -0.1762 -0.0123  0.1042
    1W        W53979  22.588  26.487   2.390 -0.1041  0.1552 -0.1027
    1W        W53980   6.533  17.401   1.526 -0.1024  0.0905 -0.0049
    1W        W53981   1.321  11.911   6.172 -0.2212  0.1025  0.3217
    1W        W53982  27.601   8.721   8.713 -0.4732  0.1677  0.0874
    1W        W53983   1.194  20.978   0.803  0.0626 -0.0069  0.1439
    1W        W53984  24.304   9.668   0.383 -0.1792  0.1846  0.1772
    1W        W53985  25.020   6.868   6.576  0.2683  0.0429 -0.1811
    1W        W53986  25.325  23.979   0.354  0.3187  0.1861  0.2959
    1W        W53987  16.234  23.694   9.663 -0.0635 -0.3160 -0.1969
    1W        W53988  26.659   3.095   0.324 -0.1670  0.1936  0.1811
    1W        W53989  13.064   4.950   8.858 -0.3086 -0.0403 -0.0143
    1W        W53990   0.616  14.608   1.061  0.0862  0.1944  0.2528
    1W        W53991  13.684  28.718   3.478  0.0531  0.0644 -0.1507
    1W        W53992  22.630  19.862   2.224  0.2158  0.0152  0.1711
    1W        W53993  14.360  26.582   8.714  0.4251 -0.0715  0.0086
    1W        W53994  17.679   6.326   2.766 -0.2976 -0.0230 -0.0217
    1W        W53995   8.389  26.760   1.363  0.1040  0.2513 -0.1172
    1W        W53996   0.149  22.307   8.311  0.1996 -0.0900  0.0010
    1W        W53997  14.590  23.347   8.645 -0.0273  0.2489  0.4852
    1W        W53998  12.060   0.657   3.259  0.0033 -0.0678  0.0649
    1W        W53999   7.569   7.250   2.860 -0.0238  0.0057 -0.0320
    1W        W54000   4.328   8.056   7.447 -0.2328  0.0988  0.0903
    1W        W54001  22.130  19.068   2.538  0.1590  0.3082 -0.2175
    1W        W54002   1.173  23.235   8.303 -0.1033 -0.0470 -0.0981
    1W        W54003  24.757   0.275   7.751 -0.1652  0.2441 -0.1046
    1W        W54004  17.911   7.688   0.878 -0.2909  0.0277 -0.1512
    1W        W54005   9.813  28.361   0.752  0.2587 -0.5291 -0.0135
    1W        W54006  28.024  11.258   0.830 -0.2232 -0.1502  0.1838
    1W        W54007  19.767  28.245   0.954  0.1601 -0.3349 -0.1831
    1W        W54008  17.199  19.283   0.928  0.0584 -0.0196 -0.2097
    1W        W54009  14.843  19.357   0.241  0.5872 -0.2595 -0.1705
    1W        W54010  25.273   8.320   1.917  0.0878 -0.1807  0.1024
    1W        W54011   2.740  26.963   3.383  0.2130  0.1432  0.2120
    1W        W54012  25.049  19.075   9.632 -0.0477 -0.1164 -0.0453
    1W        W54013   7.363  16.883   8.460  0.3410 -0.3190 -0.2057
    1W        W54014   8.454  23.999   1.536 -0.2870  0.0655 -0.0441
    1W        W54015  11.842  17.864   8.835 -0.1008 -0.0262 -0.0325
    1W        W54016   1.100   9.958   7.801 -0.0043 -0.0600 -0.0285
    1W        W54017  26.638   7.205   1.765  0.0333  0.0254 -0.0363
    1W        W54018   8.494  22.061   7.344  0.2176  0.1374 -0.1942
    1W        W54019   4.560   4.928   7.523  0.4569  0.0034 -0.2677
    1W        W54020  27.125  12.348   2.367  0.1790  0.0242 -0.0307
    1W        W54021  14.385  12.558   1.136 -0.3964 -0.1700  0.1900
    1W        W54022   0.195  20.026   7.453 -0.0156 -0.1326 -0.0800
    1W        W54023   9.916  23.167   6.974 -0.0607 -0.1162  0.1915
    1W        W54024   1.202   9.254   5.651 -0.2560  0.2398  0.2342
    1W        W54025  29.038  17.878   7.382  0.2416  0.1005 -0.0003
    1W        W54026   1.072  29.239   9.226 -0.1222 -0.0922 -0.0624
    1W        W54027  24.319  28.823   6.889 -0.0766 -0.2951 -0.0349
    1W        W54028  12.865   0.725   8.868 -0.1215  0.3559  0.1562
    1W        W54029  18.940  10.740   1.725 -0.0830 -0.1283  0.2039
    1W        W54030  17.628   9.995   1.094  0.1221 -0.2160 -0.2735
    1W        W54031  18.507  26.918   0.381  0.0549  0.0836  0.0180
    1W        W54032  27.111  15.440   6.896  0.1289 -0.0991 -0.0612
    1W        W54033  11.937  25.789   0.640 -0.1742 -0.2295 -0.3553
    1W        W54034  13.923  12.853   1.062  0.0511 -0.3636 -0.0713
    1W        W54035  23.238   7.726   8.548 -0.0530  0.0944  0.0846
    1W        W54036  15.679   1.059   7.854  0.1158 -0.3600 -0.2204
    1W        W54037  20.546  23.656   1.528  0.0839 -0.1835 -0.0561
    1W        W54038  18.692  27.472   7.791  0.3230 -0.0919  0.2031
    1W        W54039  10.515   0.360   0.327  0.0774  0.0239 -0.1085
    1W        W54040  17.415   7.596   0.700 -0.1547  0.1257  0.0642
    1W        W54041  21.306  18.787   0.125  0.1273  0.0453 -0.5179
    1W        W54042  14.633  14.264   8.613  0.1533  0.0947 -0.0264
    1W        W54043  20.840   3.020   9.361 -0.1937  0.2588  0.1890
    1W        W54044   3.638  28.222   7.679  0.2711  0.1259 -0.2938
    1W        W54045   1.945   0.488   9.688 -0.0642 -0.1267 -0.0979
    1W        W54046  15.780   6.856   1.621  0.1494 -0.3934 -0.0098
    1W        W54047   9.170  15.409   2.311 -0.0293  0.2379  0.0770
    1W        W54048   2.794   2.645   6.768  0.2975 -0.1766  0.1442
    1W        W54049  22.717  22.522   9.591 -0.0662  0.1356  0.1666
    1W        W54050   1.944  12.162   8.316 -0.3077 -0.1956  0.2030
    1W        W54051  25.481  23.127   2.830  0.1496 -0.2085  0.1013
    1W        W54052  23.694  10.680   2.032  0.0320 -0.0024  0.0656
    1W        W54053   3.180   7.168   8.019  0.0671 -0.0159  0.3430
    1W        W54054  15.034  19.470   1.204  0.0851 -0.0420 -0.1050
    1W        W54055  19.911   1.828   2.339 -0.3604  0.2440 -0.0453
    1W        W54056  25.711   4.346   8.307 -0.0802 -0.1310 -0.3352
    1W        W54057  16.464   4.405   0.196  0.2575 -0.0820 -0.2250
    1W        W54058  12.446  29.206   8.986  0.1238 -0.1881 -0.3558
    1W        W54059   5.090  25.998   1.740 -0.1344 -0.0798 -0.0527
    1W        W54060   1.174  12.019   6.657  0.5077 -0.2257 -0.1608
    1W        W54061  19.636  28.470   8.904  0.1878  0.1746 -0.1545
    1W        W54062  17.302  27.647   1.938  0.2062 -0.2568 -0.1538
    1W        W54063   2.582  21.110   1.367 -0.1447 -0.1405  0.2134
    1W        W54064   6.359   1.502   2.393 -0.2799 -0.1395 -0.0455
    1W        W54065  26.208   2.730   1.930  0.0348  0.0241  0.0664
    1W        W54066  13.914   5.514   1.082  0.2769 -0.3285 -0.0608
    1W        W54067   0.701  15.866   9.059  0.2228  0.0637 -0.0772
    1W        W54068  25.023   4.943   3.051 -0.0705 -0.0780 -0.1288
    1W        W54069  28.252   8.211   6.289 -0.4225  0.1028 -0.0968
    1W        W54070  26.893   6.651   6.107  0.0255  0.2712  0.1168
    1W        W54071   3.553  16.155   2.226  0.0602  0.2289 -0.1106
    1W        W54072  27.682  12.156   1.839  0.3235 -0.3345 -0.0843
    1W        W54073   3.526  10.821   0.999 -0.0730  0.2553  0.1681
    1W        W54074  24.039  21.733   8.260 -0.0403 -0.3896  0.1094
    1W        W54075   9.388  14.412   1.760 -0.3643  0.3032 -0.0291
    1W        W54076  28.161  16.861   8.091  0.1387 -0.0764  0.2737
    1W        W54077  18.376  23.815   0.837 -0.1504 -0.0121 -0.2399
    1W        W54078   0.638   5.891   8.172  0.1307  0.0345 -0.0273
    1W        W54079   8.936  23.398   7.111  0.0553  0.1325  0.4008
    1W        W54080  23.169   9.172   1.618 -0.0037 -0.4048  0.1807
    1W        W54081  26.272   0.550   6.256 -0.1603  0.0139  0.0283
    1W        W54082  17.933   1.720   2.504 -0.0526 -0.1735 -0.1379
    1W        W54083  21.296  28.548   8.825 -0.0526  0.0320  0.4489
    1W        W54084  11.531   8.747   1.528  0.1422  0.0937 -0.0596
    1W        W54085  15.411   2.110   2.351 -0.0680  0.0843  0.2620
    1W        W54086  20.320   8.885   2.391  0.3268 -0.0035 -0.1011
    1W        W54087   0.116  18.100   8.654  0.0788  0.2201 -0.1193
    1W        W54088   3.325  11.014   6.929  0.0711 -0.2687  0.0764
    1W        W54089   1.366  10.665   9.141  0.1718 -0.0741 -0.1579
    1W        W54090  18.434   9.619   0.897  0.0113 -0.0951  0.0283
    1W        W54091   7.916  16.115   7.537 -0.0627  0.2793 -0.0125
    1W        W54092   5.440   8.737   1.978  0.0825  0.0334 -0.0628
    1W        W54093  21.814  26.212   3.212  0.1939  0.3374 -0.1525
    1W        W54094   9.816   4.447   1.470 -0.2534 -0.0724  0.0297
    1W        W54095  15.953  25.065   1.541 -0.1622  0.1405  0.0695
    1W        W54096  22.642  26.174   8.958  0.2236 -0.3276  0.0158
    1W        W54097  11.912   4.802   8.148 -0.2774  0.2496  0.1437
    1W        W54098   7.087  13.768   9.461  0.2346 -0.0961  0.2124
    1W        W54099  25.174  20.702   3.004 -0.1171 -0.0255 -0.0212
    1W        W54100   1.062  10.343   7.294  0.0074  0.1936  0.0136
    1W        W54101  22.456   0.067   8.536 -0.1935 -0.3179 -0.0206
    1W        W54102   3.866  14.329   7.079 -0.1325 -0.4389 -0.0623
    1W        W54103  12.073   0.758   8.830  0.1408 -0.2568 -0.0512
    1W        W54104   3.256  23.341   0.776  0.1771  0.3126  0.1143
    1W        W54105  14.378  15.571   2.124 -0.0527  0.2343  0.2348
    1W        W54106  21.788   5.687   8.085 -0.0526  0.3656 -0.1978
    1W        W54107   0.932  22.598   0.882  0.1456 -0.4133  0.0070
    1W        W54108  22.315   5.192   2.531 -0.1130 -0.6020 -0.1648
    1W        W54109  17.999  23.203   2.393  0.0363 -0.0969  0.1429
    1W        W54110   2.574  14.330   8.366  0.2337  0.1914 -0.0001
    1W        W54111   3.851  18.972   5.835 -0.0584  0.1551 -0.0427
    1W        W54112  11.414  15.736   8.320  0.1386 -0.2529 -0.0278
    1W        W54113  26.013  21.041   8.274 -0.1021  0.1324 -0.2207
    1W        W54114   8.749  18.470   9.297 -0.0671 -0.2042 -0.1089
    1W        W54115  20.784   8.139   2.641  0.0402 -0.0803 -0.0591
    1W        W54116   6.026  12.502   2.516  0.0047 -0.2481 -0.3249
    1W        W54117  26.685   5.793   1.043 -0.2024 -0.0665 -0.1534
    1W        W54118   4.436  22.474   6.412 -0.1178 -0.0410  0.2083
    1W        W54119   5.352  13.474   6.804 -0.0097  0.4043  0.1030
    1W        W54120   0.438   0.767   8.270  0.2004 -0.1190 -0.2903
    1W        W54121  19.388  26.895   8.580 -0.2402  0.1182 -0.0728
    1W        W54122  23.088  19.991   2.610  0.0533 -0.1592  0.1570
    1W        W54123  14.764  23.833   3.475  0.0170  0.0613 -0.1705
    1W        W54124  13.662   6.230   9.258  0.2964 -0.0055  0.1185
    1W        W54125  12.920  14.977   1.167  0.0220  0.0302 -0.1579
    1W        W54126   8.739   1.385   2.233  0.0280  0.0335  0.0896
    1W        W54127  25.854  27.954   1.740  0.1688  0.0528  0.0236
    1W        W54128  17.705  19.108   0.436  0.0691 -0.0102 -0.0171
    1W        W54129  24.992  12.609   0.073 -0.1783  0.2432 -0.1817
    1W        W54130  12.437  14.980   1.759 -0.2650 -0.1577  0.0609
    1W        W54131  25.651  21.807   1.989 -0.0876 -0.0795  0.0851
    1W        W54132  18.370  18.268   7.358  0.0063 -0.1599  0.0074
    1W        W54133  22.852   4.812   7.747 -0.2694  0.1787  0.0087
    1W        W54134  10.040   3.189   7.634  0.1787 -0.2794 -0.0659
    1W        W54135  14.180  27.808   2.845  0.0111 -0.1201  0.1149
    1W        W54136   1.419   5.816   7.867  0.0423 -0.3478  0.0332
    1W        W54137  27.381  25.631   1.531  0.0954  0.3354 -0.1513
    1W        W54138  19.912  12.567   2.263  0.3909 -0.0699 -0.1271
    1W        W54139  19.927  21.902   6.746  0.0799 -0.0281 -0.1579
    1W        W54140  19.126   8.227   8.131 -0.1323 -0.0551 -0.0548
    1W        W54141   4.512   9.781   2.113 -0.2272 -0.0184  0.0606
    1W        W54142   1.679  24.100   1.766 -0.2207 -0.1821  0.1417
    1W        W54143   6.309  16.970   7.111  0.2219 -0.1027  0.1974
    1W        W54144   3.836  12.034   8.814 -0.2076 -0.1573 -0.0039
    1W        W54145  16.654   1.242   8.317 -0.0461 -0.1295  0.0608
    1W        W54146  17.641   2.524   8.476  0.0126  0.0100  0.0529
    1W        W54147  15.983  14.898   8.374  0.1500  0.1190  0.2553
    1W        W54148  15.110   5.118   1.673 -0.1414 -0.2351  0.0400
    1W        W54149  26.089  23.076   8.931  0.0391  0.1986  0.1016
    1W        W54150   2.445   9.505   7.849  0.0686 -0.0857  0.1304
    1W        W54151  18.653  28.238   9.038 -0.1239  0.1460 -0.2561
    1W        W54152  16.683   0.773   0.059 -0.0954  0.1181  0.0187
    1W        W54153   9.826  10.916   8.543 -0.1439  0.2235 -0.0630
    1W        W54154  15.439  21.692   7.721  0.1461 -0.1015 -0.1521
    1W        W54155  23.842   2.805   6.954 -0.1645 -0.1201 -0.0902
    1W        W54156  13.071  18.164   1.592  0.3425  0.1347  0.4960
    1W        W54157  25.416  19.598   8.886  0.0007  0.2771 -0.0736
    1W        W54158  13.294   2.794   9.643 -0.1469 -0.0848 -0.1086
    1W        W54159  16.776  18.421   9.260  0.0637 -0.0003  0.0086
    1W        W54160  23.887   9.158   8.791 -0.2403  0.0515  0.2377
    1W        W54161   0.043   0.450   6.485  0.3098  0.4821  0.0020
    1W        W54162  25.529   9.563   0.875 -0.0797 -0.1435  0.0590
    1W        W54163   1.211  17.749   1.012 -0.1478  0.0905 -0.3055
    1W        W54164  25.581  22.471   7.348  0.2265  0.2569  0.0629
    1W        W54165  21.958  18.210   0.833 -0.1916 -0.0205  0.1290
    1W        W54166  25.967  19.457   7.204  0.0708  0.0130 -0.1623
    1W        W54167  10.817  11.691   2.113 -0.0273 -0.1787 -0.1793
    1W        W54168  24.564  12.518   6.444 -0.1643  0.2065 -0.2240
    1W        W54169  11.597  27.604   8.242 -0.0600 -0.0940  0.3160
    1W        W54170  15.794   2.964   8.616  0.1934  0.1230 -0.3009
    1W        W54171  25.052  13.503   1.240 -0.0589 -0.1634  0.1136
    1W        W54172  18.669  15.459   8.993  0.1695 -0.1227  0.1737
    1W        W54173  12.970   4.473   2.986  0.3243 -0.1294 -0.0745
    1W        W54174  21.929   6.971   3.181  0.1771 -0.0612 -0.0950
    1W        W54175  22.500  14.775   0.750  0.0277  0.0364  0.1319
    1W        W54176   5.015  24.943   7.641 -0.1445 -0.0017  0.2723
    1W        W54177  25.884   5.516   3.020 -0.0318 -0.0510  0.2190
    1W        W54178   6.105  13.041   6.733 -0.1565 -0.1090  0.0600
    1W        W54179  15.856  27.217   9.297 -0.1430  0.0833  0.2907
    1W        W54180  17.391  19.559   7.442 -0.2017 -0.0539 -0.2074
    1W        W54181  11.414  26.585   2.422  0.0868 -0.0548  0.1670
    1W        W54182  26.780  23.860   0.358  0.0778  0.0006  0.3532
    1W        W54183   9.660   2.965   3.627 -0.1596  0.0201  0.0482
    1W        W54184  21.331  21.720   2.377  0.1392  0.1185 -0.1168
    1W        W54185  19.218  18.729   9.353  0.0215  0.1881 -0.0249
    1W        W54186   9.504   5.999   2.477 -0.1052 -0.0987  0.1729
    1W        W54187  11.092  27.382   2.735  0.1361  0.1436  0.2329
    1W        W54188   4.971  29.186   8.226  0.1696 -0.1400 -0.0979
    1W        W54189   1.368   3.326   0.129  0.0662 -0.0704 -0.3367
    1W        W54190  16.435  16.053   2.074  0.0687 -0.3576 -0.3569
    1W        W54191   2.329  21.381   7.792 -0.0326 -0.0244 -0.2777
    1W        W54192  12.996   8.664   2.830 -0.1998 -0.4245  0.0004
    1W        W54193   2.190  14.640   1.637 -0.0148 -0.1083 -0.1404
    1W        W54194  12.026  11.347   8.682 -0.0514  0.0117  0.2045
    1W        W54195  17.170   1.858   8.858  0.1679  0.0737 -0.1081
    1W        W54196   1.641   8.503   1.948 -0.2674 -0.1321 -0.0478
    1W        W54197   1.062   2.234   0.705  0.2293 -0.1631  0.1184
    1W        W54198  18.548  21.721   0.527  0.0906  0.0649  0.1890
    1W        W54199   9.736  24.878   2.959 -0.1368  0.1272  0.0118
    1W        W54200  28.833  10.089   2.295 -0.0603  0.2884  0.2517
    1W        W54201  15.442  23.352   7.272 -0.0176 -0.0013 -0.0715
    1W        W54202  12.948   3.031   2.028 -0.4165  0.1033  0.0543
    1W        W54203  27.259   2.090   2.180  0.2862 -0.1556  0.2116
    1W        W54204  22.309   8.122   9.231 -0.0308  0.2478  0.0830
    1W        W54205  13.111  24.725   7.284 -0.2005  0.1586 -0.0523
    1W        W54206   6.251  14.057   0.102 -0.0524  0.0107 -0.1011
    1W        W54207   3.883  10.493   9.445 -0.1041  0.2538 -0.0256
    1W        W54208  20.849  23.517   0.802  0.2609  0.1187 -0.1775
    1W        W54209  11.874   5.432   9.126 -0.0260 -0.0926 -0.2040
    1W        W54210  14.819  22.415   6.582 -0.0004  0.2257  0.1453
    1W        W54211   1.755   8.397   8.720  0.0683 -0.0474  0.0905
    1W        W54212  13.973  18.347   1.226  0.3519  0.1376 -0.1653
    1W        W54213   9.485  21.509   7.776 -0.0503  0.2507 -0.3345
    1W        W54214  26.550   0.256   6.954 -0.0381 -0.1216  0.1868
    1W        W54215   5.967   7.133   9.205 -0.1665  0.0169 -0.1408
    1W        W54216  16.566  21.444   8.640  0.1539 -0.0746  0.0199
    1W        W54217  23.735  11.829   0.028 -0.0132  0.1227  0.1037
    1W        W54218  18.521  14.177   1.347  0.1001 -0.2183 -0.2675
    1W        W54219  24.991   0.625   9.046 -0.0120  0.0164  0.0919
    1W        W54220  11.195   3.518   2.861  0.1465 -0.0255 -0.0297
    1W        W54221  13.054  14.330   1.892 -0.1781 -0.1062  0.0929
    1W        W54222   5.033  17.035   0.570 -0.3417  0.1286  0.2678
    1W        W54223  22.726   6.171   9.628  0.2563 -0.2497  0.3517
    1W        W54224  24.696   5.002   8.478 -0.1965 -0.2249 -0.0425
    1W        W54225  10.441   6.465   9.562 -0.1360 -0.3357  0.1804
    1W        W54226  27.387  19.465   7.339  0.0241 -0.0190 -0.5299
    1W        W54227   1.689   8.264   2.534  0.1610 -0.0551 -0.0090
    1W        W54228  24.273   2.679   0.055  0.3840 -0.0918 -0.0826
    1W        W54229   4.559  28.002   3.211  0.0477 -0.2949 -0.0821
    1W        W54230   3.715   6.540   6.156 -0.2853  0.1375 -0.1555
    1W        W54231   8.417  16.795   9.307  0.1780 -0.1571 -0.0075
    1W        W54232  14.765   3.779   4.487 -0.0090  0.1596 -0.4634
    1W        W54233  11.888  21.959   8.501  0.2993 -0.1660 -0.2502
    1W        W54234  23.007   2.378   6.948 -0.0408 -0.0362 -0.5388
    1W        W54235  16.416  10.915   7.849 -0.1147 -0.0286  0.1494
    1W        W54236  15.609   0.437   2.735 -0.0519 -0.2348  0.2664
    1W        W54237  24.467   4.906   2.129  0.0019  0.3025  0.0292
    1W        W54238  21.573   2.999   6.747 -0.3883 -0.1316  0.0330
    1W        W54239   3.973   6.001   6.718 -0.0958 -0.0711  0.1140
    1W        W54240   2.476  25.263   6.867  0.0144  0.0055  0.0372
    1W        W54241  27.667   6.602   7.235 -0.1904  0.3031  0.2481
    1W        W54242  22.138  18.364   1.280  0.0692  0.1944 -0.0740
    1W        W54243  23.888  28.838   7.152  0.1008 -0.0403 -0.4223
    1W        W54244  21.460  25.881   2.238 -0.0201  0.1083 -0.1655
    1W        W54245   2.826  26.809   0.139  0.0245 -0.0458 -0.1352
    1W        W54246   1.501  19.421   6.001  0.0099 -0.0444 -0.1308
    1W        W54247  27.639   7.017   7.993 -0.0136  0.1423  0.1586
    1W        W54248  12.446  11.318   8.402 -0.1384  0.0768  0.3969
    1W        W54249  16.306  14.424   2.332  0.2911 -0.1478 -0.0600
    1W        W54250  15.069  18.550   8.352 -0.1256  0.0836 -0.1193
    1W        W54251  25.761  13.361   1.548 -0.2256 -0.0045  0.0489
    1W        W54252  14.904  17.303   9.440  0.0565 -0.1469 -0.0583
    1W        W54253  18.814  16.163   0.868 -0.1347 -0.1805 -0.0131
    1W        W54254   9.303   3.785   1.749  0.0557 -0.4103 -0.1528
    1W        W54255  16.256  10.519   9.319 -0.0851 -0.0945  0.3155
    1W        W54256   7.928  21.900   2.717  0.0448  0.3128 -0.2920
    1W        W54257  12.449  14.134   1.380  0.0299 -0.2453  0.3426
    1W        W54258   3.089   9.795   0.938 -0.0133  0.0418 -0.0506
    1W        W54259  28.307   9.580   1.645 -0.2315 -0.0919 -0.0225
    1W        W54260  22.565  26.242   0.305  0.0430  0.0520  0.0480
    1W        W54261  22.123   9.116   0.056  0.2849  0.0192  0.0430
    1W        W54262   5.271  26.499   6.635 -0.1633  0.1584  0.1732
    1W        W54263  10.418  22.732   7.664 -0.1501 -0.2468 -0.0671
    1W        W54264  17.904  15.957   8.285 -0.0309  0.0243 -0.0326
    1W        W54265  13.659   1.794   8.260  0.1505  0.0507 -0.1460
    1W        W54266  18.105  18.931   9.160  0.1096 -0.0233 -0.1093
    1W        W54267  26.064  25.908   0.987 -0.4770  0.1398  0.0434
    1W        W54268  10.724   1.860   9.674 -0.0528  0.1723  0.1140
    1W        W54269  25.975  21.603   2.733 -0.1609  0.0964 -0.1196
    1W        W54270  26.026  22.476   7.642  0.3212  0.2769  0.1685
    1W        W54271   6.694  13.667   1.916  0.1567 -0.2164 -0.1160
    1W        W54272  17.147  28.985   9.080 -0.2198  0.3666 -0.0654
    1W        W54273  25.268  20.591   0.963  0.2345  0.0108 -0.0494
    1W        W54274  22.916  15.138   0.780  0.1737  0.3779  0.3876
    1W        W54275   2.949  16.564   9.635 -0.0028  0.1301  0.3598
    1W        W54276  20.816   4.687   7.399 -0.0666 -0.2426  0.1814
    1W        W54277  18.132  23.925   8.365  0.0324 -0.1748  0.0871
    1W        W54278   6.361  21.555   1.196  0.2006  0.1979 -0.3162
    1W        W54279  14.882  27.105   4.464 -0.3156  0.1469  0.0427
    1W        W54280   2.432   7.655   7.526 -0.2585 -0.2133  0.2134
    1W        W54281  19.409  21.177   2.509  0.2636 -0.1414 -0.2300
    1W        W54282  17.015  26.527   0.608  0.0837 -0.0326 -0.0568
    1W        W54283  22.967   1.787   9.577 -0.3492 -0.0527 -0.0772
    1W        W54284  27.837  25.297   1.670 -0.1748 -0.3885  0.1592
    1W        W54285  26.835  28.447   6.860 -0.0775  0.0491  0.0993
    1W        W54286  14.563  11.775   0.525  0.0599 -0.2829 -0.1818
    1W        W54287  15.920  29.362   4.020  0.4567  0.3164  0.1446
    1W        W54288  20.789   2.560   8.676 -0.0506 -0.1197  0.1259
    1W        W54289   7.052   6.154   7.918  0.3149  0.1357 -0.2493
    1W        W54290  17.055   0.170   9.050  0.1605 -0.0300  0.0896
    1W        W54291   6.167   7.816   2.003  0.1903  0.2909 -0.2810
    1W        W54292   4.853   0.248   1.954  0.1020 -0.1910  0.4099
    1W        W54293   5.102   2.147   6.627 -0.4870  0.0264  0.1258
    1W        W54294  10.163  28.860   0.752  0.0585 -0.0200 -0.1046
    1W        W54295  25.128  20.665   7.871  0.1345 -0.5365  0.1531
    1W        W54296  18.360  12.087   7.582 -0.0684 -0.0127  0.0156
    1W        W54297   6.826  23.984   1.458  0.1954 -0.0375  0.0878
    1W        W54298  22.349   5.787   9.370 -0.0193  0.1590 -0.0319
    1W        W54299  27.109  23.608   8.187  0.5261  0.1953  0.0533
    1W        W54300  26.264  16.184   1.724 -0.1664  0.1949 -0.2073
    1W        W54301  20.067   7.262   8.130  0.1556 -0.1124 -0.3523
    1W        W54302  27.271  13.482   6.666 -0.0953 -0.1425  0.0646
    1W        W54303   9.047  14.883   7.952  0.2495 -0.0685 -0.0065
    1W        W54304   3.627  11.461   9.392  0.2114 -0.7176  0.0436
    1W        W54305  20.491  18.530   1.120 -0.0403  0.0272 -0.1267
    1W        W54306   8.914  26.996   8.598 -0.0108 -0.3359  0.0434
    1W        W54307  11.645  27.185   3.334 -0.0134 -0.0552 -0.1425
    1W        W54308  24.973  28.574   0.764 -0.1266 -0.0948  0.0232
    1W        W54309   8.806  21.941   0.293 -0.1341  0.0246 -0.0120
    1W        W54310  23.073   8.254   2.281  0.3627 -0.1159  0.1445
    1W        W54311  10.765  15.015   7.442  0.0629  0.1346 -0.0732
    1W        W54312  15.545   6.686   1.164 -0.3567  0.1736 -0.1682
    1W        W54313  13.834  13.611   6.723  0.1295  0.0595 -0.1412
    1W        W54314   6.439  22.555   8.546 -0.0691  0.2294  0.1565
    1W        W54315  20.440   6.539   1.390 -0.3018 -0.0260  0.0504
    1W        W54316   0.328   7.377   6.317 -0.3384  0.1231  0.2458
    1W        W54317  11.051  28.917   3.152  0.1884  0.0242  0.3073
    1W        W54318  17.138  24.645   7.971 -0.0567  0.3750  0.0799
    1W        W54319   6.166   4.678   0.433  0.1108 -0.1231 -0.0339
    1W        W54320  24.817   3.485   7.409  0.2609 -0.1555  0.1026
    1W        W54321  28.831  22.783   1.063  0.4850 -0.0751  0.0471
    1W        W54322  13.911  12.409   7.338  0.2999  0.1240  0.0806
    1W        W54323  13.176  27.622   2.989  0.0061  0.0974  0.0433
    1W        W54324  19.950  10.209   7.733 -0.0320  0.0789  0.0741
    1W        W54325   8.588  18.545   7.798  0.1140  0.4241  0.3082
    1W        W54326   2.976  27.997   0.604 -0.2334  0.4808  0.3046
    1W        W54327   7.959   5.966   0.221  0.0958  0.0949 -0.1916
    1W        W54328  17.626   2.712   7.940 -0.0494 -0.1020  0.3895
    1W        W54329  12.425  11.434   0.796 -0.0679 -0.1573 -0.2006
    1W        W54330  27.283  15.224   0.161  0.0101 -0.2883 -0.0329
    1W        W54331   2.088   8.752   1.050 -0.1414 -0.0375 -0.0370
    1W        W54332   3.468  22.634   8.154 -0.0808 -0.0358 -0.1758
    1W        W54333  14.547  13.152   9.537 -0.1989  0.2533 -0.0579
    1W        W54334  27.109  17.824   9.340  0.1415  0.1881 -0.1679
    1W        W54335  10.623  13.958   9.601 -0.0694 -0.0778 -0.0961
    1W        W54336  13.320   7.225   8.473 -0.2016  0.1630 -0.1590
    1W        W54337  10.032   8.169   2.627  0.1714 -0.1523  0.2311
    1W        W54338   0.979   8.419   9.239 -0.0567  0.2188 -0.1551
    1W        W54339   6.667  16.330   7.604  0.0862 -0.2065  0.3220
    1W        W54340   3.680  13.883   0.790  0.2073  0.0628 -0.4542
    1W        W54341  10.661   7.994   8.288  0.2017  0.0472 -0.0151
    1W        W54342  22.796  11.023   7.193  0.1906 -0.0447 -0.0474
    1W        W54343  20.557  10.162   1.264  0.0999 -0.1343  0.0737
    1W        W54344   3.321  23.605   0.297 -0.0223  0.0076 -0.0491
    1W        W54345   7.177   3.826   2.636 -0.0335  0.0170  0.3347
    1W        W54346  23.650  27.396   2.110  0.2124 -0.0343 -0.0801
    1W        W54347  29.163  27.244   1.445  0.2268  0.0227  0.2834
    1W        W54348  28.750   8.285   6.194  0.3131 -0.0029 -0.0057
    1W        W54349  21.784  24.046   3.423  0.0008  0.2420  0.2376
    1W        W54350  11.981   7.697   1.640 -0.3161  0.0404  0.2718
    1W        W54351  28.817  24.800   1.981  0.0212 -0.0108 -0.0317
    1W        W54352   4.053  11.749   0.822 -0.1834 -0.0308 -0.3481
    1W        W54353  17.350  15.425   2.727  0.1311 -0.0512 -0.0058
    1W        W54354  23.724  28.220   5.877  0.0327  0.0832  0.0421
    1W        W54355  10.656   6.713   1.174  0.0709  0.2490 -0.1139
    1W        W54356  14.042   2.404   7.550 -0.0190 -0.2213 -0.1794
    1W        W54357  17.083  16.683   9.171 -0.1025  0.1864 -0.0109
    1W        W54358   5.262  15.492   6.400  0.3172  0.1234  0.1820
    1W        W54359  23.408   0.764   7.508  0.3046  0.0202  0.2904
    1W        W54360   5.389  22.915   2.177 -0.1006  0.0306 -0.4037
    1W        W54361  26.524  24.056   0.763 -0.0926  0.0157 -0.0776
    1W        W54362  27.869  16.660   6.027 -0.1419  0.2755 -0.1353
    1W        W54363  25.340  28.256   9.096  0.2874  0.0214 -0.0644
    1W        W54364   2.047   2.372   0.898 -0.0725 -0.4791 -0.0940
    1W        W54365   0.319  26.480   8.434 -0.2452 -0.0179  0.0829
    1W        W54366   2.778  15.112   1.753  0.2245 -0.0494  0.0114
    1W        W54367  21.952  24.560   1.494 -0.2939 -0.2262  0.1612
    1W        W54368  18.444   4.666   9.571 -0.1904 -0.0005  0.0205
    1W        W54369  25.070  11.124   1.639 -0.3586 -0.0685 -0.0566
    1W        W54370  21.128   5.834   8.826  0.0624 -0.1254 -0.1015
    1W        W54371   5.129  13.215   2.875  0.1340 -0.0206  0.0538
    1W        W54372  24.700  18.409   7.821  0.0946  0.2744 -0.3295
    1W        W54373  28.404  22.842   6.848  0.0350  0.2808 -0.1958
    1W        W54374  19.816  16.213   9.439 -0.0551 -0.4033 -0.0565
    1W        W54375  27.183  24.591   1.442 -0.1908  0.0426 -0.1962
    1W        W54376  11.348   7.279   7.511 -0.0389 -0.3646  0.0993
    1W        W54377   4.437  22.430   8.076 -0.1034  0.1185  0.3316
    1W        W54378  12.627  26.402   0.632 -0.0236 -0.1065 -0.0538
    1W        W54379   8.507   1.632   0.392 -0.2362  0.2586 -0.0005
    1W        W54380  19.491   3.539   0.392 -0.2376 -0.2457  0.1898
    1W        W54381  17.358   6.097   0.301  0.0843 -0.2003 -0.0273
    1W        W54382   3.239  15.132   1.964 -0.0489 -0.1658 -0.0116
    1W        W54383   4.690   9.009   1.823 -0.1518  0.1217 -0.2447
    1W        W54384  28.134  24.858   3.027  0.1684 -0.1571 -0.0050
    1W        W54385  12.558   5.350   3.135 -0.2919  0.0602 -0.1238
    1W        W54386  11.862  22.621   6.834 -0.1953  0.0434 -0.1737
    1W        W54387  23.858  27.010   0.248  0.3219  0.0212 -0.0487
    1W        W54388   1.330   4.039   8.643 -0.2333 -0.0666 -0.3092
    1W        W54389  27.300  20.000   1.334 -0.1498 -0.2720  0.1289
    1W        W54390   3.189  17.386   0.364 -0.0412  0.0614  0.3180
    1W        W54391  23.856  15.573   0.892 -0.0252 -0.2917 -0.0489
    1W        W54392  12.666  28.453   0.283 -0.3976 -0.1011  0.0235
    1W        W54393  22.863   2.062   6.064  0.0555 -0.2699 -0.1367
    1W        W54394  16.194  14.766   7.785  0.2399  0.1681 -0.0801
    1W        W54395  15.662  25.642   0.188 -0.1284 -0.2349 -0.0183
    1W        W54396  22.616  14.943   8.108  0.4612  0.1777 -0.0937
    1W        W54397  12.190   8.300   2.301 -0.0761 -0.0722 -0.0355
    1W        W54398  28.878  27.501   7.503 -0.1270  0.0542 -0.1138
    1W        W54399  25.967  24.704   6.697  0.2675  0.5479 -0.0554
    1W        W54400  10.432  20.302   9.204  0.2688 -0.0299  0.2447
    1W        W54401  14.228  25.647   1.968 -0.1628  0.0018 -0.5610
    1W        W54402   5.959  18.572   0.258 -0.1404  0.3390 -0.1908
    1W        W54403  16.717  18.473   0.667  0.2579 -0.1185 -0.0943
    1W        W54404  12.521   0.074   8.443 -0.2916  0.0094 -0.1488
    1W        W54405  19.048  13.792   7.899  0.1979 -0.3969  0.1239
    1W        W54406  13.059   9.648   0.606 -0.2398 -0.0193  0.1930
    1W        W54407  19.150   1.009   1.364 -0.1250  0.0597  0.2970
    1W        W54408  20.949  27.689   8.015 -0.0587 -0.4160 -0.0801
    1W        W54409  16.376  11.615   2.788 -0.0181  0.1978 -0.1090
    1W        W54410  18.667   1.382   6.642 -0.0465  0.1615 -0.0991
    1W        W54411   6.264   9.550   1.182 -0.1510 -0.5255  0.1628
    1W        W54412   0.409  25.114   2.996 -0.2611 -0.0692 -0.1890
    1W        W54413   2.614  27.180   2.933 -0.2924 -0.0955  0.2729
    1W        W54414   0.771  27.725   9.537 -0.1331 -0.1876 -0.0767
    1W        W54415  14.571  29.173   2.369  0.0239  0.0051  0.1911
    1W        W54416  25.538  11.696   6.775 -0.1959  0.1598 -0.0267
    1W        W54417   5.703  24.669   9.565  0.0597 -0.1597  0.0827
    1W        W54418  23.916  23.066   0.544 -0.1728  0.0441  0.1803
    1W        W54419   8.182   9.382   6.799  0.1105 -0.2503 -0.1422
    1W        W54420   1.441  16.864   6.983  0.0563  0.0306  0.1951
    1W        W54421  14.492  20.583   2.751  0.2634  0.0314 -0.1874
    1W        W54422   2.515   4.298   1.808 -0.2065 -0.1891  0.2801
    1W        W54423  27.079   2.370   8.490  0.1150 -0.4034  0.0319
    1W        W54424  28.460  18.822   7.247 -0.0276 -0.1743  0.1987
    1W        W54425  24.830  25.803   0.210  0.1975 -0.0901 -0.1618
    1W        W54426  20.545   8.678   8.417 -0.1911  0.1458  0.0545
    1W        W54427  19.208   3.144   0.070 -0.0692  0.2515  0.3280
    1W        W54428   5.348  15.419   7.481 -0.0209  0.0332 -0.0682
    1W        W54429  26.239  18.634   0.206 -0.1494 -0.0256 -0.1619
    1W        W54430  16.636   2.069   7.226 -0.1510  0.0983  0.2874
    1W        W54431  26.462   6.534   8.448 -0.1917 -0.0987 -0.1227
    1W        W54432  10.694  29.358   4.071  0.2398  0.1661 -0.0529
    1W        W54433  17.856  26.456   2.610  0.2790  0.1212  0.1070
    1W        W54434  28.950  18.536   8.132  0.0327  0.1635  0.0559
    1W        W54435  24.739   4.686   0.838 -0.2887  0.0133 -0.1599
    1W        W54436  29.035   2.304   1.948 -0.2174  0.0367 -0.2640
    1W        W54437  13.534   4.562   4.562  0.0538 -0.0322 -0.1974
    1W        W54438   6.110   2.362   8.838  0.0870  0.3965 -0.0045
    1W        W54439   9.444  27.823   2.870  0.2710  0.2316 -0.1274
    1W        W54440   4.854  16.063   1.749  0.2620 -0.0185 -0.1361
    1W        W54441  15.686  28.994   8.438 -0.1061 -0.2154  0.0660
    1W        W54442  27.071  10.056   8.116 -0.1693 -0.1894  0.1894
    1W        W54443  12.183  14.516   7.012  0.1857  0.0129 -0.2523
    1W        W54444   5.511  11.955   3.358  0.1592  0.2040  0.0408
    1W        W54445  25.547   5.068   8.353  0.2607 -0.1685  0.1600
    1W        W54446  16.334  21.884   7.231  0.1999  0.1243 -0.2887
    1W        W54447  17.584  29.051   1.469  0.0970  0.1936  0.2951
    1W        W54448  15.390   2.365   0.202  0.0776 -0.1113 -0.0227
    1W        W54449   5.110   6.042   3.164 -0.1094  0.1544 -0.1692
    1W        W54450  28.446  15.772   8.043 -0.2188  0.3448  0.2711
    1W        W54451  28.721  26.445   8.185 -0.1581 -0.3303 -0.1903
    1W        W54452   3.724  15.391   9.446  0.1363 -0.1831  0.1458
    1W        W54453   4.870  16.723   6.895 -0.0604 -0.1536 -0.0472
    1W        W54454  23.015  16.764   1.527 -0.0022  0.0370  0.0415
    1W        W54455   0.798  26.676   8.380 -0.0649 -0.0206  0.0321
    1W        W54456  14.413   8.136   8.277 -0.2821 -0.0772  0.0441
    1W        W54457   3.463   0.506   9.068 -0.0138 -0.1356  0.1690
    1W        W54458  29.108   4.229   5.843  0.2079  0.2428 -0.3222
    1W        W54459  26.285  13.898   8.272 -0.0728 -0.1252 -0.0746
    1W        W54460  28.496  19.378   0.889  0.4222  0.1194 -0.2321
    1W        W54461  20.689  19.872   0.036 -0.1113 -0.1252 -0.2196
    1W        W54462   4.961  12.659   9.684 -0.0821 -0.0824 -0.1569
    1W        W54463  16.658  16.923   1.962  0.1487  0.0560 -0.3675
    1W        W54464  27.535   1.429   1.490 -0.0398  0.2093  0.2242
    1W        W54465   5.953  20.761   8.232  0.1658  0.0280 -0.2062
    1W        W54466  26.336   3.285   0.689  0.2932 -0.2208  0.0817
    1W        W54467  22.813  20.598   8.336  0.2948  0.0421 -0.2846
    1W        W54468  25.006   4.904   1.276 -0.2393  0.0696 -0.2504
    1W        W54469  18.380  10.407   7.960 -0.2208 -0.0715  0.0235
    1W        W54470   3.639   4.870   0.990  0.1472  0.2513  0.1056
    1W        W54471   7.271   4.163   3.002 -0.0191 -0.1879 -0.0582
    1W        W54472   2.278   7.192   0.655  0.0073 -0.0489 -0.1080
    1W        W54473   2.539  13.330   0.078 -0.0068  0.1205 -0.1686
    1W        W54474  15.218  15.237   8.036  0.2997 -0.0693 -0.0207
    1W        W54475  14.341   3.976   8.445 -0.1597 -0.1362  0.3359
    1W        W54476  22.632  19.630   7.945  0.1023  0.1624 -0.1726
    1W        W54477  26.422  27.439   1.172  0.0319  0.4162 -0.2195
    1W        W54478  12.096   3.006   8.047 -0.1619 -0.2765  0.1260
    1W        W54479  18.609  24.217   9.434 -0.0733 -0.0204 -0.1278
    1W        W54480  22.489  17.790   9.077 -0.1007  0.0651  0.1790
    1W        W54481  14.736  22.646   7.039  0.1313 -0.0450 -0.0122
    1W        W54482   2.672   1.984   0.391  0.1562 -0.2415 -0.0252
    1W        W54483  24.876  13.179   8.677 -0.1479  0.1851 -0.2951
    1W        W54484   7.522   9.335   2.859 -0.0911  0.2952  0.0005
    1W        W54485   7.176  14.281   1.767 -0.1106 -0.1861 -0.1376
    1W        W54486  28.553   6.124   7.381  0.1513 -0.1381 -0.2551
    1W        W54487  22.262  11.788   8.132  0.1658  0.0473  0.3758
    1W        W54488  19.921  18.992   7.824  0.3416  0.0824  0.4805
    1W        W54489  28.262  25.615   7.837 -0.0611  0.0595  0.0431
    1W        W54490  14.194  22.302   3.097  0.2362  0.2037 -0.0891
    1W        W54491   3.102  10.175   1.247 -0.1163  0.1688  0.3625
    1W        W54492  14.255  27.321   7.278  0.0979  0.0994 -0.3174
    1W        W54493  15.549  24.558   6.794 -0.1765 -0.2629  0.0752
    1W        W54494  24.187   2.894   9.318 -0.0526 -0.0175 -0.2357
    1W        W54495  13.346   2.308   9.563 -0.2003 -0.2615  0.2395
    1W        W54496   3.828  23.155   7.208 -0.0124 -0.0428 -0.1103
    1W        W54497  12.421  28.770   8.148 -0.0606  0.2488 -0.2173
    1W        W54498  11.552   8.105   6.829  0.0284  0.1166 -0.1482
    1W        W54499  28.312  20.893   8.414  0.2670 -0.1073 -0.1308
    1W        W54500  25.425  28.649   0.662  0.1305  0.1286 -0.3129
    1W        W54501  24.591  25.903   8.964 -0.1447 -0.0385 -0.2506
    1W        W54502  22.620  10.063   1.458  0.3153  0.1941 -0.0514
    1W        W54503  20.844   4.274   9.143 -0.0100 -0.1013  0.3606
    1W        W54504   8.642   1.182   9.235 -0.1949 -0.2586  0.2418
    1W        W54505   3.791   0.281   7.010 -0.3653  0.0873 -0.1816
    1W        W54506   3.558   6.418   0.745 -0.0458 -0.0253 -0.0948
    1W        W54507   5.784  16.678   6.798 -0.0036 -0.0260  0.1996
    1W        W54508  12.756  25.574   1.897 -0.1426 -0.0162 -0.3610
    1W        W54509   2.270  16.076   0.970  0.1020  0.3746  0.0466
    1W        W54510   0.570  25.388   7.248 -0.1835 -0.1109 -0.0503
    1W        W54511  16.409  17.231   0.023  0.0592 -0.2759 -0.0638
    1W        W54512   8.725  12.866   0.116 -0.1411 -0.3176 -0.0283
    1W        W54513   7.980  19.194   6.516  0.1398  0.1416 -0.1786
    1W        W54514  25.626  18.203   1.567  0.1368 -0.0109 -0.4398
    1W        W54515  19.763  20.562   8.095  0.1023 -0.1458 -0.2150
    1W        W54516  10.794  19.796   0.341  0.1907  0.0078 -0.1376
    1W        W54517   1.855  15.332   9.689  0.0377  0.2102  0.1930
    1W        W54518  11.422  12.587   2.114 -0.0173 -0.0760 -0.0917
    1W        W54519  26.731  29.229   2.677 -0.2614 -0.1623 -0.0403
    1W        W54520   4.153   5.691   1.264 -0.0994 -0.1313 -0.2248
    1W        W54521   2.859  15.463   7.893 -0.0548 -0.0368 -0.2701
    1W        W54522  10.582  10.648   2.342  0.1319  0.0169 -0.1268
    1W        W54523  26.658  12.413   7.666 -0.1215 -0.0785  0.0327
    1W        W54524  23.406  23.236   8.736 -0.1185  0.1048 -0.0551
    1W        W54525  19.524   8.093   8.422  0.1243 -0.0927 -0.0102
    1W        W54526  11.054   4.301   7.692 -0.1651  0.0895 -0.3767
    1W        W54527  20.986  27.300   1.070 -0.1426  0.0045 -0.3367
    1W        W54528  28.338  26.062   1.085  0.2785  0.4841 -0.3381
    1W        W54529  28.975   0.591   9.477  0.0919 -0.1973  0.1056
    1W        W54530  18.904  17.884   8.748 -0.2317 -0.0248 -0.1867
    1W        W54531  12.335  16.616   8.703  0.0128 -0.2258  0.0250
    1W        W54532  22.706  25.051   8.649 -0.3026 -0.1396  0.3201
    1W        W54533  27.315  27.253   6.941  0.1259  0.2394 -0.0149
    1W        W54534   9.324  23.677   0.371  0.1217 -0.0089  0.0821
    1W        W54535   1.503   0.446   7.905 -0.1103 -0.0096  0.0747
    1W        W54536  16.762  20.604   9.360  0.0406  0.1286  0.1290
    1W        W54537   2.326   5.348   2.565  0.1025 -0.1639  0.1800
    1W        W54538  27.792  24.026   2.549  0.0430 -0.1012 -0.1541
    1W        W54539  13.223   0.996   7.030 -0.1442  0.0014  0.0229
    1W        W54540  23.588  17.963   0.254  0.2589  0.3561 -0.0843
    1W        W54541  19.355  22.328   0.688  0.1377 -0.0235  0.3438
    1W        W54542  17.644   6.319   2.101  0.0688  0.0878  0.1111
    1W        W54543  16.126  10.936   2.197  0.0767  0.0931  0.0845
    1W        W54544  15.143  19.782   9.004 -0.1032  0.0439 -0.2086
    1W        W54545  19.126   3.700   3.253 -0.3395 -0.1961  0.1557
    1W        W54546  28.078  15.979   1.701  0.1278 -0.3940  0.1754
    1W        W54547  17.784  13.848   0.765  0.3580 -0.0487  0.1948
    1W        W54548  15.531  17.911   1.097  0.3705 -0.1981  0.1358
    1W        W54549  12.122   5.872   3.014  0.0335 -0.1753  0.0634
    1W        W54550  21.808  19.033   9.364 -0.0633  0.2488 -0.2176
    1W        W54551  22.896  23.094   7.325  0.2535  0.2525  0.0388
    1W        W54552   5.913  19.235   0.900  0.1935  0.1090 -0.0991
    1W        W54553  25.775   5.427   0.606 -0.0071  0.0561  0.0159
    1W        W54554  20.652  12.280   7.866  0.0679  0.2946  0.1340
    1W        W54555   8.282   2.664   0.731  0.3202 -0.2198  0.1315
    1W        W54556   6.612  23.670   9.251 -0.2166 -0.0936 -0.0090
    1W        W54557  13.644   0.206   3.768 -0.0357 -0.2284 -0.0432
    1W        W54558  13.238   6.402   8.950  0.2217 -0.1219 -0.2600
    1W        W54559  10.102   9.599   2.234  0.1099  0.3161  0.2374
    1W        W54560  16.303  18.196   0.862 -0.1065 -0.1857 -0.2124
    1W        W54561  29.234  25.008   2.055 -0.0656 -0.0857 -0.2503
    1W        W54562  24.542  18.063   7.425  0.0904 -0.4641  0.1414
    1W        W54563   7.650   1.750   1.317 -0.2772 -0.3828  0.0902
    1W        W54564   6.864   5.194   6.973  0.1161  0.0263 -0.0198
    1W        W54565   7.957   5.254   3.102  0.0973 -0.2311 -0.2557
    1W        W54566  19.427   6.287   1.293  0.0804 -0.3532  0.0973
    1W        W54567   8.343  14.279   1.064  0.2682 -0.1008 -0.0206
    1W        W54568  12.135  20.993   7.502 -0.0645  0.1443 -0.1989
    1W        W54569  19.212   4.175   6.666  0.1199  0.1921 -0.0427
    1W        W54570  16.561   8.519   8.279  0.0856  0.1933 -0.2828
    1W        W54571  19.072   9.416   1.293 -0.2255  0.0021 -0.1539
    1W        W54572   6.379  21.052   9.642  0.2988  0.1339  0.1000
    1W        W54573  28.430   3.260   1.106  0.0568  0.0019  0.0398
    1W        W54574   3.114   0.624   7.947 -0.1759  0.0639 -0.0720
    1W        W54575  24.251  25.176   2.555 -0.2724 -0.3051  0.2581
    1W        W54576  14.107  23.300   7.167  0.0774 -0.1731  0.0179
    1W        W54577  16.294  20.188   1.042  0.0501  0.0194 -0.0900
    1W        W54578  12.862   7.503   8.121  0.1769 -0.3415  0.1606
    1W        W54579  23.405   8.415   0.501 -0.0207  0.2599  0.1497
    1W        W54580  10.517  23.628   7.557 -0.3122 -0.2161  0.3894
    1W        W54581   6.612  11.378   1.743  0.1586  0.1037 -0.3427
    1W        W54582   6.284   4.927   1.706 -0.4370 -0.4988 -0.0392
    1W        W54583   3.911  28.752   3.041  0.0983 -0.2692  0.1498
    1W        W54584  24.665   0.373   2.044 -0.0528  0.0187  0.1080
    1W        W54585  19.418   7.156   7.405  0.0819 -0.0559  0.1269
    1W        W54586   4.672  20.813   6.746  0.2616  0.0630  0.2329
    1W        W54587  14.311   9.668   0.434 -0.1314 -0.1586 -0.2394
    1W        W54588  10.865   3.974   8.608  0.1306 -0.1384  0.1673
    1W        W54589  13.024  23.057   8.377 -0.1377 -0.2617 -0.0529
    1W        W54590   5.064   7.094   1.527 -0.2002 -0.1154  0.0123
    1W        W54591  18.273  16.761   1.815  0.2024 -0.1685  0.1514
    1W        W54592  12.821   2.274   9.594  0.0004 -0.0559 -0.2780
    1W        W54593  22.087   2.185   1.882 -0.2048  0.2276 -0.1043
    1W        W54594   5.891  24.856   1.919  0.2662  0.3523  0.0087
    1W        W54595  22.555   1.620   7.027 -0.1521 -0.0891  0.0096
    1W        W54596   9.459  28.232   3.157 -0.0572 -0.1034 -0.1690
    1W        W54597  23.506   2.425   7.028  0.1404  0.0436  0.0181
    1W        W54598   2.972  10.747   0.572 -0.3168  0.0344 -0.3443
    1W        W54599  21.942   9.945   7.170  0.2301  0.0296  0.0498
    1W        W54600  27.739  13.328   8.025 -0.1402 -0.0102 -0.0038
    1W        W54601   7.870  22.074   2.276 -0.3916 -0.1185  0.0064
    1W        W54602  10.199  21.103   8.289 -0.0227 -0.1995  0.1495
    1W        W54603  12.693  18.682   0.911  0.0599 -0.2389  0.1434
    1W        W54604  15.862   3.705   3.476 -0.3800 -0.0547  0.1368
    1W        W54605   6.211  12.787   9.000  0.0517  0.1350  0.1491
    1W        W54606  10.100  27.832   1.666 -0.0517  0.2502 -0.2311
    1W        W54607  23.521  16.610   1.578  0.1505 -0.1139 -0.1595
    1W        W54608  13.621  24.977   7.784 -0.0040 -0.1403 -0.1758
    1W        W54609   4.836  21.461   6.778 -0.3083  0.2065 -0.2629
    1W        W54610  12.272  28.581   3.324  0.2536 -0.0622 -0.3210
    1W        W54611  13.034   6.858   7.479 -0.1241  0.2636 -0.0980
    1W        W54612   6.847  27.470   9.137 -0.2967  0.0188 -0.0379
    1W        W54613   5.416  10.330   2.601  0.0813  0.1086  0.0539
    1W        W54614   0.594  10.025   9.129  0.0706  0.0675  0.1031
    1W        W54615  21.926   6.081   0.773  0.3653 -0.1480 -0.2454
    1W        W54616   8.311  20.404   6.928  0.1593  0.0662 -0.1988
    1W        W54617  25.887  11.308   0.824  0.0738 -0.1616 -0.0863
    1W        W54618   0.073  10.967   1.429 -0.0962  0.0464 -0.3440
    1W        W54619  16.064  28.329   2.534  0.0474  0.0485  0.3140
    1W        W54620  14.882  28.546   0.845 -0.1177 -0.1682 -0.2157
    1W        W54621  24.267  27.699   2.988 -0.1053  0.2264 -0.3151
    1W        W54622  18.286  23.566   1.806 -0.3720 -0.0870 -0.1941
    1W        W54623  20.513  23.867   6.638 -0.0052  0.1209  0.1607
    1W        W54624  25.144  14.894   0.257  0.1673  0.1279 -0.1620
    1W        W54625  21.824  15.657   8.575 -0.0166 -0.0000  0.0314
    1W        W54626   7.777  25.987   8.492  0.1550  0.0124 -0.1442
    1W        W54627   6.227  29.160   8.927 -0.1407  0.4618  0.1079
    1W        W54628  21.292   0.990   2.970 -0.3114  0.0648  0.2550
    1W        W54629  12.540  23.329   7.217  0.1966  0.3472 -0.0009
    1W        W54630   8.985  28.601   8.557 -0.1092  0.2847  0.3182
    1W        W54631  28.663  17.981   8.058 -0.0022 -0.0143  0.1208
    1W        W54632  19.804   2.863   7.106 -0.2742 -0.0840  0.3527
    1W        W54633   9.819  28.812   8.461 -0.3181  0.0361 -0.1219
    1W        W54634  25.245  25.492   2.535 -0.1650 -0.1510 -0.0966
    1W        W54635  21.087   3.922   7.583  0.1081 -0.0014  0.0306
    1W        W54636  16.896   6.162   1.586  0.1494 -0.0995 -0.2067
    1W        W54637  28.415  15.327   7.824 -0.3772  0.0076  0.0051
    1W        W54638   8.950  13.955   7.402  0.2428 -0.0989 -0.0248
    1W        W54639  28.990  24.197   9.067  0.0961 -0.3132 -0.1407
    1W        W54640  28.537  15.529   6.937  0.0756 -0.1266  0.0665
    1W        W54641   5.819   2.842   7.557 -0.1416 -0.5905 -0.0311
    1W        W54642  11.039  12.398   0.713 -0.0658 -0.0418 -0.1980
    1W        W54643  12.150  23.857   8.728  0.2896  0.0944  0.0009
    1W        W54644   3.874   5.183   6.701  0.3048 -0.0604  0.1959
    1W        W54645  22.235   9.612   9.586  0.0808  0.0091 -0.0963
    1W        W54646   3.897  19.403   6.032 -0.0036 -0.1672  0.1018
    1W        W54647  19.469  29.155   9.304  0.0461  0.0422 -0.0943
    1W        W54648  24.664  16.706   6.106 -0.0311  0.0728  0.1243
    1W        W54649  21.815  24.171   6.732  0.0326  0.0273  0.0266
    1W        W54650   3.541  12.239   0.443 -0.1291 -0.0131  0.0832
    1W        W54651  26.062  25.702   1.449  0.1282  0.1011  0.1540
    1W        W54652   6.252  15.609   6.734  0.3480 -0.1479  0.2739
    1W        W54653  24.784  16.600   2.067 -0.3437  0.1835 -0.3213
    1W        W54654   9.174   4.163   0.895 -0.1573 -0.1518  0.0886
    1W        W54655  19.879  25.200   7.613 -0.2610 -0.0026 -0.2571
    1W        W54656   9.289   2.181   7.733  0.1369  0.0745 -0.2194
    1W        W54657   3.097   5.476   0.776  0.0977  0.1942  0.2056
    1W        W54658  13.288   0.055   9.609 -0.2204 -0.1369  0.1608
    1W        W54659  15.786   7.121   8.286 -0.1380 -0.0316 -0.0814
    1W        W54660  24.892   4.120   0.299  0.2706 -0.2488  0.0917
    1W        W54661  26.203  17.910   0.664  0.2647 -0.0677 -0.2239
    1W        W54662   5.256   0.640   6.561  0.2529 -0.0160 -0.1357
    1W        W54663  13.249  27.756   3.468 -0.1943 -0.0633 -0.0607
    1W        W54664   5.310   1.522   0.696  0.1139  0.1086 -0.0668
    1W        W54665  22.384   6.155   3.208 -0.0597  0.0056  0.1321
    1W        W54666  15.752  27.424   3.547  0.1507 -0.3273 -0.0803
    1W        W54667   7.384   5.891   8.234 -0.3499  0.0883 -0.4193
    1W        W54668  11.330  21.935   6.865 -0.1358 -0.2360 -0.2787
    1W        W54669   9.888  24.385   1.080  0.1559 -0.0953  0.0964
    1W        W54670  12.755   5.160   9.215 -0.1207  0.4107 -0.0347
    1W        W54671   0.021   7.435   7.710  0.0340 -0.0388  0.0529
    1W        W54672  11.390  28.552   4.230  0.0426 -0.2807 -0.2059
    1W        W54673   7.572  13.633   8.751  0.0328  0.1686  0.3604
    1W        W54674   3.201  14.881   1.500 -0.0144 -0.0693 -0.0399
    1W        W54675   2.114  11.206   9.193 -0.4278  0.0743  0.1384
    1W        W54676   2.377  28.575   1.609  0.0147  0.1321 -0.0402
    1W        W54677  24.233   3.200   5.610  0.0130 -0.0423  0.1864
    1W        W54678  15.863  19.437   2.215  0.1954  0.1494  0.1640
    1W        W54679  25.673  24.742   7.168  0.1996  0.0479 -0.0660
    1W        W54680   2.216  28.851   1.153 -0.1189  0.2297 -0.0631
    1W        W54681  27.567  24.238   2.954  0.1466 -0.3456  0.2505
    1W        W54682  15.561  23.620   9.488 -0.2021  0.1255 -0.0740
    1W        W54683  12.705  28.803   3.295 -0.1024  0.0235 -0.0782
    1W        W54684  11.556  11.498   8.588  0.0129  0.0797 -0.2071
    1W        W54685   9.274  20.667   8.172 -0.2300 -0.1648  0.1385
    1W        W54686  10.035  17.189   7.834  0.0049  0.1102 -0.1963
    1W        W54687  17.940  22.399   7.027 -0.0618 -0.4489 -0.0610
    1W        W54688  14.679  17.755   9.283  0.2906  0.2348 -0.3212
    1W        W54689   8.500  26.318   8.237 -0.0546  0.2530 -0.1787
    1W        W54690   3.651  17.206   6.645 -0.0592  0.3119  0.0472
    1W        W54691  12.171   8.097   1.265 -0.2533 -0.0299 -0.2556
    1W        W54692  24.979  10.573   7.108  0.3525 -0.1374  0.0627
    1W        W54693   6.845  18.048   1.007  0.1176  0.0675 -0.1953
    1W        W54694   8.560  22.858   7.759  0.1508  0.0404 -0.0355
    1W        W54695   5.617  15.879   1.818  0.3283 -0.0304  0.0204
    1W        W54696   7.386  24.874   8.938 -0.3164  0.0993 -0.2630
    1W        W54697  20.980   6.521   2.177  0.0679 -0.0064 -0.1468
    1W        W54698   3.876  17.519   8.592  0.1266  0.1633 -0.0861
    1W        W54699   1.518  24.570   1.604  0.1533  0.0850  0.0784
    1W        W54700  12.299  23.536   0.434 -0.0973  0.2173 -0.3449
    1W        W54701  15.898  11.895   8.076  0.0473  0.0323 -0.1381
    1W        W54702  29.150   1.641   0.240  0.3510  0.0619  0.1091
    1W        W54703   8.352  24.949   7.818 -0.2383  0.3297  0.1210
    1W        W54704  17.289   7.728   2.182 -0.0151 -0.1370  0.1211
    1W        W54705   1.622  17.148   2.502 -0.0378  0.1261 -0.0862
    1W        W54706   3.166  24.600   6.701 -0.2518 -0.1257 -0.2697
    1W        W54707  16.879  10.135   2.128  0.0628  0.2958 -0.0444
    1W        W54708  11.408  21.415   8.074  0.2793 -0.0614  0.0901
    1W        W54709   8.006  11.179   2.518 -0.0832  0.0020 -0.1472
    1W        W54710   0.491  19.258   7.070  0.3575 -0.0867  0.1827
    1W        W54711  21.884  21.345   0.859  0.3857  0.2186 -0.0882
    1W        W54712  12.681  26.167   2.529 -0.2058 -0.2246 -0.0726
    1W        W54713  12.521   4.697   9.169 -0.0539  0.3404  0.1521
    1W        W54714  26.273   5.712   1.735  0.4273  0.1098 -0.1256
    1W        W54715  12.536  12.356   9.354  0.0480 -0.0469  0.0274
    1W        W54716  19.636  22.487   2.709 -0.0309  0.0106  0.0714
    1W        W54717   2.507  13.293   3.019 -0.0148 -0.0085 -0.3650
    1W        W54718  26.133  27.856   0.513 -0.1960  0.1487 -0.2608
    1W        W54719   6.793  26.064   0.452  0.0665 -0.1755  0.2202
    1W        W54720   4.753   7.188   2.425  0.3727  0.3121  0.1806
    1W        W54721  22.721  27.797   7.985  0.1016 -0.0157  0.0758
    1W        W54722  25.326   3.830   1.729  0.5008  0.2702  0.1141
    1W        W54723  18.904   2.555   1.151  0.2060 -0.1040 -0.1222
    1W        W54724  18.890   6.768   3.678  0.2408  0.0719 -0.0743
    1W        W54725  27.654  12.366   8.155 -0.0347 -0.1128 -0.2928
    1W        W54726  23.104  16.573   9.644 -0.2524 -0.0051  0.2354
    1W        W54727  29.315   3.289   7.890  0.2023 -0.3619  0.1852
    1W        W54728  17.742   1.598   9.691  0.0046 -0.1736  0.1710
    1W        W54729  16.654  24.706   7.742 -0.0564 -0.1472  0.0189
    1W        W54730  11.547   7.152   2.735  0.3173 -0.1757 -0.1489
    1W        W54731   0.700   2.978   9.270  0.2186  0.1226 -0.0563
    1W        W54732  27.542   8.901   7.377  0.1989 -0.2098  0.1087
    1W        W54733   3.362   9.516   9.460  0.1473  0.2767  0.0607
    1W        W54734  17.076  17.742   7.487 -0.1383 -0.0116  0.0326
    1W        W54735   6.206  28.594   8.128  0.0019  0.0874  0.0229
    1W        W54736  18.463  25.131   9.444  0.1982 -0.0711 -0.3629
    1W        W54737  26.037  13.905   0.830  0.0289  0.0261 -0.3079
    1W        W54738   5.325  10.006   1.507 -0.1079 -0.1603 -0.0636
    1W        W54739   6.487  27.769   0.799  0.0182  0.3848 -0.0580
    1W        W54740   9.698  10.621   1.026  0.0948 -0.2058  0.0037
    1W        W54741  26.899  13.305   2.370 -0.0757  0.0797 -0.2139
    1W        W54742   0.500  13.383   9.565 -0.2482  0.0960 -0.0661
    1W        W54743   4.145  29.056   7.996  0.0069  0.0946  0.0786
    1W        W54744   4.656  21.753   1.282  0.2617 -0.1165 -0.0473
    1W        W54745   1.884  11.750   0.962  0.0508  0.3127 -0.1672
    1W        W54746   7.465  28.485   1.144 -0.0003 -0.4858 -0.0218
    1W        W54747  23.385  20.949   7.056 -0.0307  0.3662  0.1749
    1W        W54748  26.173   3.419   0.163  0.0544 -0.1071  0.1245
    1W        W54749  22.068   0.960   6.931 -0.1338  0.3975 -0.0933
    1W        W54750  18.640   9.822   2.463 -0.2455 -0.1542 -0.1189
    1W        W54751  21.317  20.834   0.136 -0.1916  0.1213 -0.2116
    1W        W54752  16.901  13.133   1.966 -0.0495 -0.0972 -0.1138
    1W        W54753   7.451  20.788   6.650  0.0327  0.0364  0.3579
    1W        W54754  23.724   5.710   7.228 -0.1840 -0.1210 -0.0001
    1W        W54755  22.611  12.029   1.941 -0.0327  0.0208 -0.1515
    1W        W54756  21.427  24.901   0.105  0.0461  0.2136  0.2193
    1W        W54757  15.223  27.755   8.559  0.0033  0.0854  0.0612
    1W        W54758  28.810  27.731   8.955  0.1387  0.4283  0.5018
    1W        W54759  26.532  19.040   0.590  0.1188  0.2145 -0.0590
    1W        W54760  29.149   3.808   8.135  0.1148 -0.1585 -0.2098
    1W        W54761  13.581   8.137   3.295 -0.0242  0.2354  0.3157
    1W        W54762   7.677  21.660   7.605  0.1419  0.1981  0.4711
    1W        W54763  25.708  18.759   9.206 -0.0012 -0.0098 -0.1865
    1W        W54764   6.967  11.449   7.663 -0.0603  0.3021 -0.2186
    1W        W54765  27.232  21.951   1.777 -0.0495  0.0151 -0.2183
    1W        W54766  21.429  21.663   0.094  0.0173  0.0885 -0.1654
    1W        W54767  26.980  28.977   9.019 -0.0571  0.0328 -0.1510
    1W        W54768  23.742  28.353   0.061  0.3167  0.1062  0.0459
    1W        W54769   4.343   3.696   2.344 -0.2299  0.2727  0.3461
    1W        W54770  16.347  15.649   8.285  0.2754 -0.1058  0.2775
    1W        W54771  24.693  16.206   2.513 -0.1130 -0.3382 -0.3942
    1W        W54772   4.328  12.294   7.787  0.1029 -0.1451  0.1633
    1W        W54773  26.751   5.576   7.560 -0.1246 -0.3021  0.1824
    1W        W54774  11.181  26.196   2.053  0.2508  0.0538  0.2089
    1W        W54775  20.779   5.301   1.039  0.0240 -0.0210 -0.1051
    1W        W54776  23.407  18.636   8.932 -0.0168 -0.0937  0.0893
    1W        W54777  12.825   5.385   7.709 -0.0813 -0.1846 -0.0284
    1W        W54778  14.401  28.714   9.282 -0.0560  0.1993 -0.2579
    1W        W54779  27.792  10.013   7.448  0.0652  0.0970  0.0255
    1W        W54780   4.799   7.551   1.548  0.6808 -0.3105 -0.0660
    1W        W54781  13.577  23.637   2.708 -0.0611  0.1188  0.0963
    1W        W54782   7.022   8.198   7.721 -0.1561  0.1467  0.0741
    1W        W54783  16.335  27.305   3.464  0.4431  0.0132 -0.0250
    1W        W54784   3.380  26.131   7.232  0.2262  0.0571  0.1889
    1W        W54785  22.199   1.705   1.715  0.1431 -0.0129  0.3024
    1W        W54786  10.748   2.524   2.735 -0.1812  0.1630  0.0743
    1W        W54787  27.616  13.237   6.214 -0.2387 -0.1248  0.3139
    1W        W54788  16.632  14.094   9.071 -0.1427  0.4644 -0.2617
    1W        W54789  28.356  15.930   7.211 -0.1326  0.0612 -0.0799
    1W        W54790  11.926  26.825   2.518 -0.0556 -0.0688 -0.0204
    1W        W54791  22.205  14.833   5.996 -0.2709  0.1671 -0.2217
    1W        W54792   6.840  10.517   9.481  0.1206 -0.0415 -0.1993
    1W        W54793  18.592   1.526   0.464  0.1319 -0.3257  0.0910
    1W        W54794  26.431  28.195   1.739 -0.0246 -0.2248  0.0902
    1W        W54795  13.454  13.140   7.517 -0.0498 -0.1887 -0.0465
    1W        W54796  15.922   7.136   9.249 -0.0077  0.1157  0.1005
    1W        W54797   1.105  25.800   1.628  0.1001 -0.2068 -0.0455
    1W        W54798   1.451  28.502   0.677  0.1540 -0.2045  0.2224
    1W        W54799  13.022  16.169   0.486 -0.0528  0.0459 -0.2841
    1W        W54800  26.971  28.785   9.468 -0.0334  0.2398 -0.1696
    1W        W54801  14.055  28.943   8.952 -0.3157 -0.2486 -0.0378
    1W        W54802  27.214   7.637   1.074  0.1196 -0.0218 -0.3338
    1W        W54803  24.247  25.374   3.395  0.5630 -0.0041 -0.0427
    1W        W54804  10.849   2.861   9.357 -0.0228  0.0198  0.0648
    1W        W54805  25.072  15.055   1.912  0.1563  0.0322 -0.2451
    1W        W54806  23.910  16.319   2.560  0.1602 -0.2525  0.3294
    1W        W54807  19.733  29.075   6.897  0.3678  0.0601 -0.1416
    1W        W54808   6.070  21.845   0.877 -0.2529 -0.0413 -0.0168
    1W        W54809  29.334  16.916   7.390 -0.1139 -0.3038 -0.0069
    1W        W54810  23.227  20.119   6.424  0.1118 -0.1495 -0.1019
    1W        W54811  28.757  29.264   2.184  0.3603  0.1010  0.0775
    1W        W54812  12.796   7.280   3.058 -0.2091  0.0512  0.1067
    1W        W54813  21.008  20.596   9.502  0.0038 -0.0806 -0.4456
    1W        W54814   0.985  23.074   2.337  0.0672 -0.0950  0.2587
    1W        W54815   3.831  20.697   2.169 -0.1086  0.0319  0.0883
    1W        W54816  19.885  25.755   1.996 -0.2391  0.0837 -0.0739
    1W        W54817   7.102  22.497   9.513 -0.1485  0.0781  0.2152
    1W        W54818  25.036   3.252   0.125 -0.1908 -0.0514  0.1265
    1W        W54819  26.894  18.022   0.119 -0.1288  0.2892  0.4049
    1W        W54820   5.384  26.437   1.547 -0.1327 -0.1937 -0.0673
    1W        W54821   1.341  24.336   6.696  0.0624 -0.0856 -0.0200
    1W        W54822  11.571  13.670   9.540  0.2725  0.1752 -0.4191
    1W        W54823  28.862  15.194   8.570 -0.2511 -0.0571  0.2648
    1W        W54824  29.348   7.260   0.191  0.0572  0.2763  0.3326
    1W        W54825   9.879  17.408   6.798  0.2064  0.3208  0.0407
    1W        W54826  16.242  12.673   8.314  0.2214  0.1609 -0.2556
    1W        W54827  21.706  19.450   3.794  0.2735  0.0968  0.2277
    1W        W54828  26.125   9.204   2.532 -0.3145 -0.0916 -0.0912
    1W        W54829   0.740   7.358   0.507 -0.4034 -0.0532  0.1486
    1W        W54830   4.168   1.407   2.557 -0.0775  0.2858 -0.0457
    1W        W54831   3.934   9.323   1.131  0.1473  0.3108  0.1677
    1W        W54832   1.320  12.399   6.111 -0.0093 -0.1070 -0.0318
    1W        W54833  28.850   2.354   7.312  0.3696  0.0230 -0.2010
    1W        W54834   7.790  12.656   2.452  0.0117 -0.2751 -0.2125
    1W        W54835   7.777  17.410   6.748  0.3214  0.1126  0.1093
    1W        W54836   5.815  28.921   1.001  0.1285 -0.1047  0.4520
    1W        W54837  24.217   7.306   8.711  0.0644  0.0742 -0.1462
    1W        W54838  11.593   5.897   2.885  0.2903  0.0660  0.1560
    1W        W54839   6.574   0.866   1.819 -0.0021 -0.0890 -0.3712
    1W        W54840  26.239   9.074   0.505 -0.1415 -0.1631  0.4029
    1W        W54841   4.619  23.429   7.755 -0.2023 -0.0832 -0.0318
    1W        W54842   6.261  23.040   8.372  0.2145  0.0920  0.0243
    1W        W54843  16.234   7.020   1.649 -0.0026  0.0760  0.0303
    1W        W54844  14.694  18.381   9.207 -0.0207 -0.3311 -0.0937
    1W        W54845  17.652   8.983   0.887 -0.2071  0.2739  0.3624
    1W        W54846  29.028   6.620   1.629  0.2422 -0.5355  0.1933
    1W        W54847  24.347  14.802   1.170  0.2509 -0.1771  0.0211
    1W        W54848   5.452  25.726   7.236  0.1672  0.0977  0.3972
    1W        W54849   3.721  25.632   2.608 -0.0200  0.0058  0.1466
    1W        W54850   8.093   8.036   1.731  0.2175 -0.2140  0.0369
    1W        W54851   3.358  11.052   7.394 -0.3012 -0.1690  0.1415
    1W        W54852  26.042  13.463   0.549 -0.1727  0.1543  0.0965
    1W        W54853   1.121  24.716   9.485  0.1112  0.2200 -0.1476
    1W        W54854   4.903  10.916   8.469 -0.0825 -0.0623 -0.1440
    1W        W54855  22.096  23.047   7.837 -0.0923 -0.1627 -0.3280
    1W        W54856   8.719   1.523   1.117  0.0649 -0.1016 -0.0127
    1W        W54857  27.954   6.524   0.150 -0.0296  0.0459  0.2093
    1W        W54858  23.234   3.834   2.921  0.0691  0.0374  0.2173
    1W        W54859  26.468  20.989   8.450 -0.1346  0.5286 -0.0080
    1W        W54860  11.441  19.372   0.555  0.0417 -0.2031  0.0845
    1W        W54861  24.313   8.723   2.164  0.0420  0.3521 -0.0303
    1W        W54862  28.169  16.296   8.072  0.0707 -0.0976 -0.0769
    1W        W54863   6.755  24.179   0.778  0.1981 -0.3069  0.1418
    1W        W54864   8.553  10.895   8.900  0.0616  0.0552 -0.0801
    1W        W54865   3.028   4.285   2.139  0.1784 -0.0799 -0.0334
    1W        W54866   1.201  22.292   7.933 -0.2712  0.1190 -0.0969
    1W        W54867  28.969  24.861   2.894  0.2049  0.0877  0.0118
    1W        W54868   6.490  15.979   0.352  0.0795 -0.0387 -0.2830
    1W        W54869  15.987   3.551   2.448  0.0789  0.2087  0.3125
    1W        W54870  15.555  22.797   2.042  0.1195  0.0132 -0.1437
    1W        W54871   2.070  26.573   2.185 -0.0809  0.1121 -0.1309
    1W        W54872  25.081   4.710   8.234  0.1982  0.0356 -0.2628
    1W        W54873   5.594  11.689   7.343 -0.0032 -0.5714 -0.0813
    1W        W54874  26.109   0.605   2.912  0.0033 -0.0098  0.0104
    1W        W54875  25.019  27.432   1.852 -0.1492 -0.3256  0.0726
    1W        W54876   8.741  16.254   1.803 -0.2299 -0.1268 -0.0724
    1W        W54877  11.289   2.880   0.785 -0.2296 -0.1273 -0.0782
    1W        W54878  19.523  24.890   7.637 -0.0581  0.2226  0.0200
    1W        W54879   0.620  17.635   9.453 -0.1209 -0.2718 -0.2583
    1W        W54880   8.603  22.497   8.741  0.2447 -0.1498  0.3717
    1W        W54881  22.481  26.735   3.272 -0.2524 -0.1713  0.3704
    1W        W54882  22.662  14.125   2.520 -0.1059  0.0400 -0.2347
    1W        W54883  28.247   1.959   1.601 -0.0718 -0.3495  0.0215
    1W        W54884   3.420  21.298   0.269  0.1740  0.0423  0.0149
    1W        W54885   6.432  12.788   2.295  0.1419 -0.0900 -0.0848
    1W        W54886  19.485   6.766   2.219 -0.0396  0.1044 -0.1296
    1W        W54887   6.333   0.261   7.783 -0.0775  0.1172 -0.1630
    1W        W54888   5.865  13.129   9.147  0.2664 -0.1736 -0.0574
    1W        W54889  11.639   0.449   0.593  0.1718  0.1538  0.1942
    1W        W54890  13.634  23.546   0.925 -0.4095 -0.1479 -0.1333
    1W        W54891  24.191  18.139   7.090  0.0478  0.1549 -0.1034
    1W        W54892   5.408   8.829   0.783  0.3066 -0.0819 -0.0335
    1W        W54893   3.419  12.589   7.236  0.0707  0.2837 -0.2219
    1W        W54894   7.865  16.706   7.266 -0.2124 -0.0379  0.1694
    1W        W54895  17.729  11.555   2.104  0.0199 -0.2209 -0.3560
    1W        W54896  15.208  28.242   0.995 -0.0886  0.2471  0.1987
    1W        W54897   1.025   1.822   7.819 -0.0386  0.2909  0.2166
    1W        W54898   1.017  21.361   6.908 -0.0168  0.0328  0.2135
    1W        W54899  25.751  23.743   7.088 -0.1166 -0.0603  0.0159
    1W        W54900  12.238  27.754   3.383 -0.1416  0.0784 -0.2850
    1W        W54901  13.385  10.268   1.976 -0.2554 -0.0998 -0.0587
    1W        W54902   3.437  17.477   7.019 -0.0331 -0.1425  0.0744
    1W        W54903  14.930   0.884   2.160  0.0252 -0.1326 -0.0613
    1W        W54904   2.826  23.265   8.679  0.0018  0.1848  0.1067
    1W        W54905  20.890  11.261   1.079  0.0472  0.2231  0.1977
    1W        W54906  20.545  23.295   0.352 -0.0427 -0.2597 -0.0768
    1W        W54907  15.859   4.207   8.683  0.1173 -0.1499 -0.0540
    1W        W54908  27.319   0.645   7.451  0.0829  0.2011  0.0682
    1W        W54909  17.121   4.264   3.362  0.0304  0.0713 -0.2212
    1W        W54910   6.018   2.278   8.325  0.5983 -0.2306  0.2199
    1W        W54911  17.517  12.091   1.073 -0.0270 -0.2292 -0.2778
    1W        W54912  16.326  14.536   8.278  0.0503 -0.0872 -0.1246
    1W        W54913  26.989  11.493   0.699  0.3864  0.0691  0.3578
    1W        W54914   9.102  24.359   8.200  0.1520  0.1427 -0.2572
    1W        W54915  19.271   6.854   8.051  0.0298 -0.0248 -0.4983
    1W        W54916  21.689   1.911   9.613 -0.0079 -0.3246 -0.4381
    1W        W54917  17.044   8.143   2.210  0.0212 -0.1724  0.2267
    1W        W54918   9.923  14.523   9.162 -0.1779  0.1836 -0.1005
    1W        W54919   8.527   7.133   0.820  0.1060 -0.0897 -0.1151
    1W        W54920   8.535  23.879   9.165 -0.0869  0.2358 -0.0170
    1W        W54921   3.151  19.401   1.057  0.2019 -0.1004 -0.3194
    1W        W54922  18.559  21.338   2.097  0.1199  0.0671  0.0546
    1W        W54923  14.873  18.869   9.138 -0.2578  0.0801 -0.0105
    1W        W54924  19.731  26.516   3.348  0.1145 -0.0809  0.0987
    1W        W54925  28.825  13.705   6.549 -0.1794  0.1410  0.0899
    1W        W54926  25.682  27.896   8.305 -0.4261 -0.1541  0.0382
    1W        W54927  17.476  20.896   6.963 -0.1555  0.0714 -0.0305
    1W        W54928   4.992   4.733   2.479 -0.0972  0.0600 -0.2078
    1W        W54929   0.487  28.666   6.278  0.1201  0.0280 -0.1818
    1W        W54930   4.542   1.342   0.575  0.1472  0.0013 -0.1895
    1W        W54931  20.642   4.997   7.756 -0.0377  0.0362  0.3584
    1W        W54932   8.815  12.597   0.923  0.0872 -0.1365  0.2351
    1W        W54933   3.802  18.902   9.095  0.1250  0.1914 -0.1074
    1W        W54934  26.526  25.670   1.161 -0.1389  0.4648  0.3966
    1W        W54935  27.246   2.677   8.875  0.0248  0.1381 -0.2043
    1W        W54936  10.247  23.830   8.388  0.1172 -0.0277 -0.0127
    1W        W54937   9.292   4.591   8.452 -0.1181  0.1762  0.1300
    1W        W54938  23.541  26.652   8.674  0.1639  0.0847  0.0017
    1W        W54939  13.306   6.869   8.817  0.0804  0.1113 -0.0168
    1W        W54940  28.870  27.973   9.493 -0.2048 -0.1384 -0.3310
    1W        W54941   9.987   5.948   0.655  0.0209  0.0311  0.0284
    1W        W54942  11.078  12.879   2.933 -0.1236 -0.2720 -0.3171
    1W        W54943  11.210  11.817   1.666  0.1254 -0.0315  0.2553
    1W        W54944   6.913  17.168   7.097  0.1589  0.1132 -0.3010
    1W        W54945  12.069  15.731   8.348  0.2068 -0.0904  0.1214
    1W        W54946  25.583   1.941   1.690  0.0327 -0.0067  0.0800
    1W        W54947   3.821  13.791   7.192  0.0651  0.2972  0.0335
    1W        W54948   0.782   0.682   6.149  0.0378 -0.0110  0.3497
    1W        W54949  20.391   2.354   8.402 -0.2125  0.0842  0.0712
    1W        W54950  14.237  16.287   1.634  0.0039 -0.2662 -0.1685
    1W        W54951   6.551   2.131   0.828  0.1905  0.0349 -0.1219
    1W        W54952  19.651   7.445   0.567  0.0107  0.1119 -0.0308
    1W        W54953   5.866   9.536   8.358  0.0274  0.1237 -0.1266
    1W        W54954  28.491  25.116   7.928 -0.2107 -0.1507 -0.5290
    1W        W54955   2.197   6.460   8.854  0.0168  0.0460  0.1643
    1W        W54956   2.828  19.262   0.696  0.0730  0.2383  0.1889
    1W        W54957  10.725  16.092   7.234 -0.0401  0.0302  0.4357
    1W        W54958   6.827  22.725   0.600  0.1081 -0.0465 -0.2672
    1W        W54959  11.682  14.762   1.409 -0.0873 -0.1311  0.1441
    1W        W54960  23.646  27.968   0.335  0.1678  0.1434 -0.1670
    1W        W54961   4.406   9.646   8.556  0.0905 -0.2034 -0.2965
    1W        W54962   7.029  12.299   9.492 -0.0689 -0.0960 -0.1009
    1W        W54963  22.250  15.334   5.869  0.0623  0.1284  0.2150
    1W        W54964  15.111  27.768   9.115 -0.0938  0.1956 -0.2592
    1W        W54965  13.969   6.072   1.110  0.2890 -0.0677  0.0270
    1W        W54966  26.156  19.679   6.203 -0.2337  0.0797 -0.0984
    1W        W54967  14.891   7.909   7.668 -0.1467  0.0751 -0.0398
    1W        W54968   1.508  26.608   2.678  0.1390 -0.4320 -0.0591
    1W        W54969   9.843  13.778   7.426  0.3361  0.0900 -0.1607
    1W        W54970   8.572  16.057   7.015  0.0470 -0.0158 -0.0825
    1W        W54971  22.322   4.030   0.959 -0.0200  0.1720 -0.0259
    1W        W54972  26.054   0.202   0.492 -0.0321  0.0587 -0.1825
    1W        W54973  22.467  14.503   7.564  0.2535 -0.2379  0.0296
    1W        W54974   1.966   1.430   0.575 -0.1092  0.2029  0.0032
    1W        W54975  20.217  16.399   1.524 -0.2579  0.0806  0.2605
    1W        W54976  10.966  26.704   2.144  0.1491 -0.2640  0.3823
    1W        W54977  22.705   7.477   0.031  0.2307 -0.1643 -0.1322
    1W        W54978  15.096  23.427   0.105 -0.0249 -0.1013  0.0725
    1W        W54979   2.286  21.762   9.602  0.1250  0.1288  0.3564
    1W        W54980  25.338   1.691   2.078 -0.2506  0.3680 -0.0468
    1W        W54981  25.701  20.780   3.067  0.0576  0.0269 -0.2468
    1W        W54982  25.170  11.500   7.075 -0.1527  0.1066  0.0991
    1W        W54983   3.167  19.593   1.768  0.0819  0.1250 -0.1189
    1W        W54984  12.166   8.027   9.191 -0.0451  0.1490  0.0254
    1W        W54985  27.925  18.292   8.290  0.0932  0.0683  0.0538
    1W        W54986  15.939  16.933   9.584  0.1557  0.1127  0.4960
    1W        W54987  21.367  27.714   8.571  0.2512  0.2529  0.0925
    1W        W54988  17.183  10.668   8.681 -0.0222  0.1229  0.1080
    1W        W54989   5.441  12.490   7.850  0.0208  0.0359 -0.3711
    1W        W54990  16.917  17.757   1.900  0.0717  0.1010  0.0792
    1W        W54991  25.069   9.448   1.063 -0.3188  0.1018  0.2201
    1W        W54992  28.656   5.410   6.769 -0.2290  0.1646  0.0586
    1W        W54993   1.935  28.266   7.784  0.2341 -0.1703 -0.0980
    1W        W54994   7.877  10.161   7.195 -0.0599  0.1103  0.1286
    1W        W54995  22.815  25.881   1.544 -0.1393  0.1011 -0.3982
    1W        W54996  12.734  25.474   7.674 -0.1792  0.1103  0.1245
    1W        W54997   5.498   9.594   0.059 -0.0701  0.1187 -0.0564
    1W        W54998   9.867  21.685   9.577  0.1672 -0.0114 -0.1888
    1W        W54999  19.289  11.070   7.789 -0.0032  0.0237  0.0881
    1W        W55000   7.876   6.585   1.796  0.0506  0.0405  0.2430
    1W        W55001   4.873  22.152   6.261  0.2670  0.1188 -0.0455
    1W        W55002  17.095  28.558   1.549 -0.1654  0.1007  0.1715
    1W        W55003   3.329  11.199   9.095  0.0825  0.2382 -0.2437
    1W        W55004   1.276  19.651   6.384 -0.3046  0.2487 -0.1339
    1W        W55005  28.245  20.098   1.677 -0.0530 -0.3336  0.3231
    1W        W55006  17.543  22.160   0.139  0.0693  0.2125 -0.1565
    1W        W55007  17.088   2.603   8.400  0.2671  0.1403 -0.1324
    1W        W55008  10.551   0.136   3.573 -0.3411 -0.0262  0.1779
    1W        W55009  26.330  23.751   2.849  0.0477 -0.2674  0.4450
    1W        W55010  26.591   6.883   9.630 -0.3878 -0.1688  0.3148
    1W        W55011  19.119   0.076   9.557 -0.0276  0.0201 -0.0040
    1W        W55012   5.661  21.897   1.333  0.2041  0.0643  0.2433
    1W        W55013  20.740   0.734   2.492 -0.0532  0.0380 -0.0977
    1W        W55014  27.803   8.472   8.244  0.1102 -0.1463 -0.2806
    1W        W55015   2.826   1.016   1.264 -0.0366  0.0316 -0.2674
    1W        W55016  13.055  10.061   9.542  0.1911 -0.0558  0.1444
    1W        W55017   3.490  10.205   8.619 -0.1730  0.4293 -0.1249
    1W        W55018  17.657  20.204   8.971 -0.0752  0.1722  0.0237
    1W        W55019   5.523  13.633   1.450 -0.1500  0.0554 -0.2024
    1W        W55020   2.296  15.495   0.324  0.1072  0.0981 -0.0597
    1W        W55021  21.004  24.666   9.601 -0.2149  0.1681 -0.0589
    1W        W55022  22.492  21.702   7.082  0.2627 -0.1783  0.1767
    1W        W55023  17.574   5.347   7.712 -0.0551 -0.1805 -0.1780
    1W        W55024  26.381   8.318   8.012 -0.1637 -0.0687 -0.2007
    1W        W55025  11.109  11.334   9.250  0.0350  0.1438  0.0733
    1W        W55026   4.007   7.735   7.273 -0.0367 -0.1602 -0.0181
    1W        W55027  22.507  28.427   1.049 -0.0209  0.0182 -0.2836
    1W        W55028  27.548   3.264   1.477  0.0211 -0.1109  0.0218
    1W        W55029  11.466   0.458   3.449  0.2896  0.2482 -0.0821
    1W        W55030   9.137  20.443   8.641 -0.2953  0.2697  0.4653
    1W        W55031  20.732  27.405   0.697  0.0061 -0.2107 -0.5175
    1W        W55032  22.198   2.558   7.618 -0.5478 -0.0184 -0.1410
    1W        W55033  19.116   8.652   2.404  0.1048 -0.0976  0.0307
    1W        W55034   1.251  21.910   0.889 -0.1126  0.0183 -0.0111
    1W        W55035  26.601  13.288   1.793  0.0774  0.2195 -0.2372
    1W        W55036  21.660  21.631   8.747 -0.2351  0.1838  0.1301
    1W        W55037  12.245   5.804   2.187 -0.3654  0.0377  0.1539
    1W        W55038   9.848  26.216   0.114  0.0171 -0.2937  0.2736
    1W        W55039   0.983   3.640   9.574  0.0017  0.1150  0.0824
    1W        W55040   1.587  13.975   8.769 -0.1853  0.1754 -0.1655
    1W        W55041   3.595  17.965   2.332  0.1330 -0.5949 -0.1755
    1W        W55042  25.374  28.713   7.120 -0.2230  0.2986  0.1314
    1W        W55043  14.909  27.832   1.029  0.2872 -0.1490 -0.1166
    1W        W55044   2.854  14.130   8.723  0.0363  0.0376 -0.2356
    1W        W55045  23.968  15.718   5.696  0.0596  0.1401 -0.2859
    1W        W55046   5.264  15.050   8.247  0.3122  0.0270  0.1148
    1W        W55047   5.369  22.616   8.004 -0.2570 -0.2489 -0.0051
    1W        W55048  16.377   9.158   0.567 -0.0190 -0.2864 -0.0415
    1W        W55049   2.650   4.863   0.175 -0.0098  0.1301  0.2798
    1W        W55050   3.686  26.371   7.572  0.1172 -0.3645 -0.0630
    1W        W55051  20.916  11.989   8.830 -0.2545  0.0312  0.1895
    1W        W55052  18.138   0.923   8.504  0.3417 -0.1887 -0.2485
    1W        W55053   5.863  12.001   7.047 -0.0292 -0.0509 -0.1778
    1W        W55054  10.509   1.231   0.363  0.2395 -0.1612  0.0924
    1W        W55055  27.902  27.469   7.731  0.1038  0.1938 -0.4265
    1W        W55056  24.233   4.108   7.927 -0.0569 -0.1704  0.2739
    1W        W55057  22.830  21.704   9.539  0.1236 -0.3048 -0.0313
    1W        W55058  27.468  25.262   7.120 -0.1853 -0.0949  0.1301
    1W        W55059  18.129   3.835   0.719 -0.1187 -0.1177  0.0621
    1W        W55060  23.094  28.639   2.228 -0.1925  0.1101  0.1879
    1W        W55061   7.233   3.396   1.011  0.0834  0.0245  0.1099
    1W        W55062  20.533  10.289   6.910  0.0089 -0.2210  0.2099
    1W        W55063   3.225  26.701   0.897  0.1488  0.2568  0.0925
    1W        W55064   4.900   5.470   0.436  0.0927 -0.0494 -0.0733
    1W        W55065   3.227  28.232   0.998 -0.0390  0.0823  0.1088
    1W        W55066  16.451  25.791   2.902  0.1305 -0.0691  0.1393
    1W        W55067  20.346   7.983   2.421  0.2746  0.2511 -0.2077
    1W        W55068   4.608  12.248   8.247  0.0079  0.0306 -0.1336
    1W        W55069  23.218   3.862   7.606  0.0330 -0.1824  0.0073
    1W        W55070  25.757  20.595   1.448 -0.1249 -0.2116 -0.0226
    1W        W55071   1.025  17.138   1.120  0.0059 -0.1679  0.0420
    1W        W55072  10.180  14.247   9.498 -0.3940 -0.2870 -0.1558
    1W        W55073   7.782  10.621   8.438  0.3091  0.0417 -0.1357
    1W        W55074  14.516  18.814   6.929 -0.2878 -0.1153  0.1176
    1W        W55075  27.343  24.340   9.333 -0.1125 -0.2938 -0.0582
    1W        W55076  26.103   2.004   9.070  0.0120  0.2461 -0.2138
    1W        W55077   0.190  20.119   6.740  0.3179  0.1840  0.1216
    1W        W55078  18.430   7.678   0.889 -0.3432 -0.0459  0.0232
    1W        W55079   4.439   8.430   7.088 -0.1094  0.1322  0.2654
    1W        W55080   5.503   0.972   2.416 -0.0750 -0.4147 -0.0077
    1W        W55081  23.168  17.812   6.901 -0.1518  0.3970 -0.4320
    1W        W55082  11.749  15.327   8.475 -0.0937 -0.0875  0.1283
    1W        W55083  20.585  22.788   9.085  0.1584 -0.0016  0.0225
    1W        W55084  24.061  26.603   7.814  0.3783 -0.1142  0.3279
    1W        W55085   3.171  12.369   1.905 -0.1595  0.2580 -0.1789
    1W        W55086   1.287  14.073   0.162  0.1139 -0.3587  0.0576
    1W        W55087  21.408   2.724   6.381  0.2121  0.1117 -0.1471
    1W        W55088  26.179   6.812   9.182  0.3095  0.0484 -0.3048
    1W        W55089  26.164  11.498   5.565  0.1806 -0.1495  0.1060
    1W        W55090  11.227   8.003   7.481  0.2622  0.2911  0.3160
    1W        W55091  14.843  25.499   0.781 -0.2359 -0.2281 -0.1922
    1W        W55092   0.842   8.580   8.084  0.1794 -0.0920  0.0971
    1W        W55093   0.020  27.997   9.673  0.2011  0.0311  0.0587
    1W        W55094  21.894   0.380   9.212  0.1038  0.2835 -0.2141
    1W        W55095  14.738   2.387   1.097 -0.0570  0.5459 -0.3233
    1W        W55096   3.444  27.164   0.971 -0.0538  0.1731 -0.2406
    1W        W55097  12.303  15.316   0.514 -0.1317 -0.0950 -0.1227
    1W        W55098   7.501   9.741   7.958  0.1250 -0.0729 -0.2108
    1W        W55099  11.025  11.057   0.053  0.0389 -0.1399  0.0051
    1W        W55100   5.548  15.180   9.097  0.2390  0.1446 -0.2931
    1W        W55101  14.546  14.746   9.274 -0.0891  0.0094  0.1595
    1W        W55102  28.178   3.330   7.524 -0.7191  0.0420 -0.0301
    1W        W55103  12.643  13.708   8.632  0.3232 -0.0140  0.0153
    1W        W55104  29.085  10.659   2.765 -0.2156 -0.0094 -0.1307
    1W        W55105  27.825  28.195   8.715 -0.0475  0.3131  0.0592
    1W        W55106   5.685   7.850   0.827  0.3412 -0.2295  0.0873
    1W        W55107  22.409   2.371   2.310  0.0928  0.1096  0.0789
    1W        W55108  17.577   7.179   1.659  0.1739 -0.2005  0.0850
    1W        W55109   9.630  10.366   2.504  0.1027 -0.2305 -0.1025
    1W        W55110  21.990  22.945   1.786  0.1491  0.0331 -0.1973
    1W        W55111  12.496  17.692   9.654  0.1212 -0.1233  0.1876
    1W        W55112  27.859   9.389   0.896  0.0088  0.2030 -0.1511
    1W        W55113  17.916  12.695   9.349  0.1796  0.0877  0.0749
    1W        W55114  17.494  26.560   3.037  0.1003  0.1139 -0.1430
    1W        W55115   6.995  24.397   9.347  0.1467 -0.0257 -0.0364
    1W        W55116  26.001   5.512   6.238  0.1645 -0.0906  0.0400
    1W        W55117   3.153  29.041   0.614  0.0903 -0.5308 -0.1987
    1W        W55118  11.646   0.734   2.922  0.0919 -0.0701 -0.0945
    1W        W55119  24.578  20.061   8.949  0.0318  0.0333 -0.2926
    1W        W55120  18.198   2.650   8.030  0.1359 -0.1715 -0.4524
    1W        W55121   7.856  10.718   1.424  0.0768  0.1690  0.1446
    1W        W55122  20.804  17.561   7.285 -0.1032 -0.2245 -0.0966
    1W        W55123  23.621  20.039   7.780  0.0730 -0.0295  0.0155
    1W        W55124  15.862  21.981   0.410  0.1996  0.0790 -0.1156
    1W        W55125  24.997  21.941   2.763 -0.1513  0.4859 -0.1254
    1W        W55126  20.955  26.668   8.134 -0.0803 -0.1550 -0.4150
    1W        W55127  27.683  14.088   6.617  0.3530 -0.2161  0.2707
    1W        W55128   2.154  15.590   0.779 -0.0473  0.0618 -0.1284
    1W        W55129  17.376  26.107   2.574 -0.2430 -0.0562 -0.0914
    1W        W55130  13.493  15.596   7.321  0.0791 -0.2139  0.1908
    1W        W55131   1.711  10.637   1.209 -0.1215 -0.1137 -0.3861
    1W        W55132  24.582  15.033   7.168 -0.3319  0.1372 -0.2293
    1W        W55133  21.819  22.846   2.409  0.2066 -0.0009  0.0374
    1W        W55134   1.514   0.767   6.978 -0.0693  0.1040 -0.3707
    1W        W55135   2.581  20.468   0.085 -0.1118  0.0243  0.0085
    1W        W55136  26.229  20.727   8.826  0.0673  0.0709 -0.0013
    1W        W55137  10.123   7.101   3.537  0.1423  0.0942  0.0225
    1W        W55138   1.862  15.529   6.845  0.1322 -0.1663 -0.1638
    1W        W55139   3.620  16.724   8.992  0.1428 -0.1115 -0.2013
    1W        W55140  18.177   3.393   0.521  0.0597 -0.2230 -0.0711
    1W        W55141   7.923  16.645   8.193  0.0340  0.2738 -0.2320
    1W        W55142  15.664  20.071   1.668  0.1824 -0.2550  0.2732
    1W        W55143  29.083  28.854   1.425 -0.3979 -0.2478  0.2383
    1W        W55144  21.212  25.127   6.893 -0.1522 -0.1369  0.1201
    1W        W55145   3.485  24.357   2.238  0.1176 -0.3197 -0.0140
    1W        W55146  20.437   2.731   2.824  0.0480  0.1042  0.2732
    1W        W55147  13.198   7.339   2.815 -0.1061  0.2740  0.0865
    1W        W55148   0.844   6.853   0.562  0.3167 -0.1016 -0.0123
    1W        W55149  15.676  26.363   1.757 -0.0558  0.4127  0.0200
    1W        W55150   7.381  20.903   1.914  0.0905 -0.3736 -0.1225
    1W        W55151  19.981   7.586   2.517 -0.1878 -0.1616 -0.1136
    1W        W55152  15.764  28.742   2.583 -0.1171  0.2812  0.1208
    1W        W55153   6.301   4.756   9.287  0.1103  0.0235 -0.0777
    1W        W55154  12.331  27.081   8.587 -0.2513 -0.2713  0.0886
    1W        W55155  23.186  23.275   2.713  0.3193 -0.1697  0.0482
    1W        W55156   3.583  16.614   8.442 -0.2066  0.0264  0.3685
    1W        W55157   2.084   8.964   8.871 -0.3599  0.3520 -0.2554
    1W        W55158  15.964   1.505   8.184 -0.2753 -0.1543 -0.2674
    1W        W55159  27.335   2.422   0.434 -0.1569 -0.0166  0.0292
    1W        W55160  26.923  22.670   9.107  0.2644  0.2061  0.0723
    1W        W55161  24.265  28.677   1.338 -0.2187 -0.2551  0.1029
    1W        W55162   5.481   6.772   1.449  0.1206  0.1459  0.0571
    1W        W55163  13.085  27.092   0.144 -0.0113  0.0641  0.1462
    1W        W55164  23.625  14.870   1.997  0.0157 -0.1782 -0.2822
    1W        W55165   4.607  23.423   0.667  0.1474 -0.4669 -0.2273
    1W        W55166  10.580  18.111   0.331 -0.2188  0.0162  0.1973
    1W        W55167   8.535  22.757   8.272 -0.0939 -0.1769 -0.0756
    1W        W55168   6.628  28.956   2.033  0.1557 -0.2577 -0.1141
    1W        W55169  18.019  21.533   7.250  0.1001  0.1488  0.2874
    1W        W55170  25.635  15.012   1.259  0.3947 -0.1872  0.2143
    1W        W55171   2.328   0.143   8.932 -0.1906  0.2201  0.2793
    1W        W55172   3.782  17.467   9.194  0.0477 -0.1133  0.2866
    1W        W55173   9.395  11.422   1.518  0.1998  0.1318 -0.0571
    1W        W55174   2.494   9.035   8.452 -0.0095  0.2611  0.1065
    1W        W55175  19.085  16.845   0.130  0.0644 -0.1981  0.1320
    1W        W55176  26.302  14.429   2.875 -0.2727 -0.0928 -0.0281
    1W        W55177   7.750  16.075   8.418 -0.2062  0.0450  0.0269
    1W        W55178   1.280   1.025   9.265 -0.0900  0.2154 -0.1109
    1W        W55179  12.398  27.664   1.809 -0.0818 -0.0943 -0.0476
    1W        W55180   1.854  11.834   7.941  0.0373  0.1253 -0.0560
    1W        W55181   9.604  10.107   0.246  0.1336 -0.0941  0.2195
    1W        W55182  16.575  28.547   1.651 -0.1388 -0.1639 -0.0966
    1W        W55183   4.106  10.520   1.444  0.0164  0.3553  0.2407
    1W        W55184   5.317  16.654   6.649 -0.1030  0.1471 -0.1662
    1W        W55185  25.990  14.721   7.211  0.1580  0.0406  0.3019
    1W        W55186  14.964  27.672   1.497  0.0873  0.2609 -0.3564
    1W        W55187   9.588  22.895   2.274  0.3213  0.1699 -0.1504
    1W        W55188   9.619   3.686   2.144  0.3261  0.0492 -0.2845
    1W        W55189   0.104  16.192   1.257 -0.0841 -0.1386 -0.0948
    1W        W55190  27.950  14.931   9.354  0.0455 -0.0293  0.2357
    1W        W55191  11.041   7.095   9.140 -0.2030 -0.2057 -0.1284
    1W        W55192  20.246  15.494   8.523  0.2543 -0.1048  0.1519
    1W        W55193   4.290   6.074   8.020  0.1968  0.1304  0.1384
    1W        W55194  29.147  21.052   7.155  0.2395  0.0913 -0.0209
    1W        W55195  14.242  24.282   1.636 -0.2140  0.0708 -0.0656
    1W        W55196  22.950   5.246   0.228  0.1164 -0.0925 -0.0420
    1W        W55197  27.991  16.453   5.601 -0.1928 -0.0586 -0.0365
    1W        W55198  14.706  20.143   6.855 -0.2512  0.0368  0.5650
    1W        W55199  11.035  25.149   7.152  0.1171  0.0923 -0.0731
    1W        W55200  21.176   8.959   2.888  0.1171 -0.0362 -0.1251
    1W        W55201   6.837   7.049   8.165  0.1204  0.0576  0.0531
    1W        W55202   1.092  22.030   1.650  0.1814 -0.2111  0.2253
    1W        W55203   8.668   8.337   8.104 -0.3335  0.0463  0.0927
    1W        W55204  22.305  16.749   0.360 -0.0050  0.0293  0.0337
    1W        W55205  12.106   0.304   0.458 -0.0078 -0.4037 -0.1076
    1W        W55206  23.019  28.602   9.264 -0.0443  0.2746 -0.2160
    1W        W55207   6.996  24.691   7.208  0.1240 -0.1569 -0.1326
    1W        W55208   7.908  29.097   9.656  0.3198  0.0438 -0.1947
    1W        W55209  11.659  13.824   1.806 -0.0451  0.0601  0.0092
    1W        W55210   1.712  14.718   8.426 -0.0432  0.0523  0.0321
    1W        W55211  17.417   8.176   8.583  0.0445 -0.1237  0.1186
    1W        W55212  14.210   1.745   2.952  0.1765  0.1309  0.2498
    1W        W55213  11.459   6.536   9.605  0.2897 -0.0779 -0.1461
    1W        W55214  19.689  21.976   1.815  0.2709  0.0146 -0.1771
    1W        W55215  16.407  13.261   2.056 -0.1464  0.0065  0.2407
    1W        W55216  11.627  11.389   9.122 -0.0069 -0.2656  0.0618
    1W        W55217  14.625  23.660   8.148  0.1793  0.1137  0.3426
    1W        W55218  17.274  24.067   2.155  0.1177 -0.0865 -0.2029
    1W        W55219  27.824   3.797   7.550 -0.1425  0.1383  0.0192
    1W        W55220  13.617  22.296   3.123 -0.1390 -0.0132 -0.4360
    1W        W55221  28.936   8.489   3.118 -0.1470  0.0588 -0.1246
    1W        W55222   9.082   8.176   7.868 -0.2292  0.0270  0.1556
    1W        W55223  20.020  28.942   8.299  0.4372  0.4726  0.0595
    1W        W55224   5.266  10.631   8.190  0.1721  0.0488 -0.2298
    1W        W55225  26.667   5.441   8.453 -0.1144 -0.0030  0.2980
    1W        W55226  16.080   9.186   1.341  0.0572 -0.0535  0.0035
    1W        W55227   9.088   7.339   7.551  0.1415  0.0342 -0.0935
    1W        W55228   0.065  15.252   8.905 -0.0698 -0.0368 -0.0034
    1W        W55229  16.639  18.940   8.435 -0.1028  0.2380  0.2641
    1W        W55230  12.802  19.932   2.889 -0.2910 -0.1729 -0.1513
    1W        W55231  17.963   5.070   1.068 -0.3007  0.1130 -0.2650
    1W        W55232   4.625  25.074   8.348  0.1929 -0.0205 -0.2463
    1W        W55233  20.674  21.615   0.868  0.0852 -0.2786 -0.0236
    1W        W55234  25.329   5.712   7.578  0.1350 -0.1013 -0.2886
    1W        W55235   5.298  23.229   9.478  0.1361 -0.1759 -0.0698
    1W        W55236  10.164  12.994   1.753  0.0882 -0.0956  0.1369
    1W        W55237  23.989  24.051   8.361 -0.5912  0.0601  0.0733
    1W        W55238  12.199  23.390   8.770 -0.0764 -0.4012  0.0880
    1W        W55239  10.401   5.195   8.810  0.0839  0.0998 -0.0592
    1W        W55240   0.144   3.124   1.150 -0.1571  0.3300  0.0058
    1W        W55241  12.560  16.764   7.667 -0.3774  0.2880 -0.1419
    1W        W55242   7.711   4.548   0.544  0.3777 -0.1065  0.0665
    1W        W55243   6.115  18.351   7.316 -0.3564 -0.0364 -0.2257
    1W        W55244   4.914   5.125   6.642 -0.1415  0.0560 -0.0687
    1W        W55245  27.311   0.193   7.707 -0.0847 -0.3883 -0.0596
    1W        W55246   4.702  27.280   0.913  0.1285  0.1420 -0.3403
    1W        W55247   1.435  13.864   7.139 -0.0270 -0.3643  0.0831
    1W        W55248  10.253  20.330   7.353  0.1685  0.0683  0.0601
    1W        W55249  18.891  16.586   0.500  0.0436 -0.0751 -0.3852
    1W        W55250  14.195   5.395   2.149  0.1700  0.0931 -0.0232
    1W        W55251  14.628  29.149   9.139  0.1229 -0.0677  0.0530
    1W        W55252   5.388  13.618   2.906 -0.4143 -0.1734  0.0843
    1W        W55253  20.320   8.860   0.889  0.2019  0.0443  0.2936
    1W        W55254   5.059   6.358   9.171 -0.3528  0.2563  0.0991
    1W        W55255  26.028  27.495   6.771  0.0152 -0.1376  0.0704
    1W        W55256   5.167  22.955   8.414  0.0484 -0.1639  0.2385
    1W        W55257  27.298   1.054   1.806 -0.0279 -0.0737  0.4408
    1W        W55258   5.832   5.675   1.939  0.2142  0.0412  0.0536
    1W        W55259   5.240   1.908   0.963  0.0151 -0.1509  0.0174
    1W        W55260   8.020  18.882   9.622  0.5253 -0.0810 -0.1869
    1W        W55261  24.470   2.119   1.219  0.1205  0.0349 -0.3538
    1W        W55262  13.576  23.962   3.389 -0.0325  0.0026  0.1971
    1W        W55263   8.758  11.737   0.514 -0.3175  0.2562  0.5079
    1W        W55264  25.540   7.682   8.695  0.1158  0.5403  0.5027
    1W        W55265  25.855  15.232   8.597  0.2590  0.1059  0.0187
    1W        W55266   9.774  25.946   6.964  0.0628 -0.0925  0.0790
    1W        W55267  20.602   8.420   9.490 -0.1217  0.1553 -0.1061
    1W        W55268  19.962   6.221   9.538  0.1569 -0.0089 -0.0624
    1W        W55269  21.360   1.810   8.467  0.1475 -0.0052  0.3163
    1W        W55270   0.648   8.906   7.157 -0.0686  0.2460  0.1235
    1W        W55271  26.440  20.777   7.977  0.1865  0.0484  0.0184
    1W        W55272  20.574   3.460   1.617 -0.2183 -0.2850 -0.3148
    1W        W55273   3.356  10.035   7.557  0.0310 -0.0162  0.0668
    1W        W55274  25.919  16.188   8.353 -0.2238  0.0005 -0.0505
    1W        W55275  27.825  27.288   2.125 -0.1895  0.1340  0.0089
    1W        W55276  18.869  13.446   1.917  0.0848  0.0413 -0.1334
    1W        W55277   1.721  28.337   7.323 -0.1669  0.2709  0.0953
    1W        W55278   0.131   5.605   2.621 -0.0250 -0.0603  0.1161
    1W        W55279  14.673   0.083   9.560 -0.0720  0.2124  0.2693
    1W        W55280  11.562  21.890   9.043 -0.0792  0.0508  0.1217
    1W        W55281   0.483  12.535   7.489  0.0862 -0.4249 -0.2166
    1W        W55282  16.230  23.244   9.428 -0.0124  0.2924 -0.1067
    1W        W55283  13.780  17.338   6.867 -0.1372 -0.0183  0.0295
    1W        W55284   3.379   5.537   2.254 -0.3824 -0.0953  0.0787
    1W        W55285  18.595  29.326   7.842  0.2322  0.0991  0.0779
    1W        W55286   4.712  10.778   8.021  0.1321 -0.1268  0.0786
    1W        W55287  25.381   9.550   8.102 -0.1701  0.1012 -0.1527
    1W        W55288  20.317   7.308   2.291 -0.1388 -0.1580 -0.3238
    1W        W55289  23.405  21.744   8.716 -0.1218 -0.2533 -0.2414
    1W        W55290   1.648  10.295   9.423  0.0037  0.1347  0.1433
    1W        W55291  27.484   4.682   1.469 -0.2584  0.0483 -0.0830
    1W        W55292  17.311  26.382   7.858  0.3214  0.2117 -0.1215
    1W        W55293  17.846   0.641   2.651  0.1636  0.0692  0.0707
    1W        W55294  28.222  22.022   8.916  0.1192  0.1793 -0.0489
    1W        W55295   7.837   8.119   2.196  0.4104  0.5787  0.2941
    1W        W55296  12.385   2.588   9.499  0.0421 -0.2614 -0.0445
    1W        W55297   9.203  18.000   9.167  0.0572 -0.2744 -0.1824
    1W        W55298  19.426  29.179   7.455 -0.0625 -0.1545 -0.3321
    1W        W55299   6.438   6.460   7.496  0.1142  0.1956 -0.0356
    1W        W55300   1.555  21.019   1.769 -0.0704 -0.0109 -0.1173
    1W        W55301  15.730  22.544   1.611 -0.3608  0.3049 -0.0844
    1W        W55302   5.255  13.970   2.059 -0.1343  0.1428  0.2107
    1W        W55303  11.345   0.030   8.839  0.3056  0.0297 -0.0816
    1W        W55304  10.775  14.343   7.384 -0.0945 -0.0087  0.0502
    1W        W55305   6.051  21.640   9.091  0.0017  0.3604 -0.1620
    1W        W55306  14.574  25.253   2.276 -0.1004 -0.1217  0.1188
    1W        W55307   3.984   3.702   0.806 -0.2538 -0.0279 -0.2820
    1W        W55308   2.009  22.988   7.498 -0.0038 -0.2054 -0.3850
    1W        W55309  16.145  24.612   6.314 -0.2251 -0.2023 -0.0086
    1W        W55310  25.790  21.952   1.509 -0.0286 -0.1240 -0.1974
    1W        W55311  12.674   3.393   2.244  0.0455  0.1056 -0.0026
    1W        W55312  22.729  16.705   7.462 -0.1040  0.2077 -0.0713
    1W        W55313  20.218   7.875   7.160  0.0093  0.0383  0.2121
    1W        W55314  18.370   0.863   2.689 -0.1977  0.0756 -0.0956
    1W        W55315  14.779   6.237   7.556  0.3569  0.1198 -0.2270
    1W        W55316   9.254  15.964   6.996 -0.0921 -0.2442 -0.0977
    1W        W55317  20.176  10.949   1.117  0.2521  0.3308  0.0155
    1W        W55318   3.282  26.738   8.975 -0.1236 -0.3948  0.1536
    1W        W55319   0.828  11.679   8.499 -0.4282  0.4013 -0.2295
    1W        W55320  20.225  14.447   1.474 -0.0986 -0.1401 -0.3108
    1W        W55321  19.010  19.639   1.540 -0.2489  0.0868  0.0403
    1W        W55322   3.266  16.953   9.605 -0.0370 -0.1574  0.0400
    1W        W55323  17.529   7.388   8.576  0.0857  0.1510  0.1216
    1W        W55324  15.051  24.846   8.542 -0.1841  0.1612  0.0634
    1W        W55325   1.316   0.185   6.691 -0.0228  0.2472  0.0385
    1W        W55326   0.787  25.538   3.192 -0.2419  0.1641 -0.4040
    1W        W55327   1.008  28.286   9.490  0.0212  0.1884  0.1260
    1W        W55328  14.313  12.594   1.943  0.1505 -0.1826  0.2725
    1W        W55329  18.351   1.229   0.781  0.0753  0.2162 -0.0130
    1W        W55330  12.421  18.946   2.361 -0.3216 -0.0404 -0.0827
    1W        W55331  13.029   7.202   9.131 -0.1701  0.2050  0.1413
    1W        W55332   1.843  20.694   1.431 -0.1492  0.1325  0.1088
    1W        W55333  15.441  27.325   3.136 -0.0234 -0.3159 -0.1584
    1W        W55334  23.863   8.438   6.818 -0.3252  0.2750 -0.1517
    1W        W55335  16.003  16.712   0.304 -0.1475  0.0265  0.0200
    1W        W55336   5.857  18.543   2.072 -0.0583 -0.0916  0.3407
    1W        W55337  12.968   5.478   0.293 -0.0103 -0.0594  0.0566
    1W        W55338  23.361  11.361   1.664 -0.0066  0.2360 -0.0735
    1W        W55339   4.795  12.597   6.435 -0.0682 -0.0160  0.2557
    1W        W55340  21.552  10.257   2.493  0.2008  0.0915 -0.0262
    1W        W55341   9.128  10.429   7.995  0.1191  0.0156 -0.0307
    1W        W55342  15.040  27.509   4.050  0.3111  0.0562 -0.2128
    1W        W55343  19.619   1.032   1.253 -0.0150 -0.1493  0.0336
    1W        W55344   7.124  24.468   8.887  0.3238  0.0892  0.0818
    1W        W55345  15.613  22.802   1.194 -0.2553 -0.1571 -0.0933
    1W        W55346   2.125  11.270   8.557  0.1568  0.0110  0.1776
    1W        W55347  21.630   1.902   6.562  0.2160  0.1248 -0.1041
    1W        W55348   3.954   8.732   1.206  0.0427  0.0556  0.1164
    1W        W55349   6.901   3.200   2.573  0.1694 -0.1430 -0.0730
    1W        W55350   0.746   2.994   7.125  0.1199  0.0770 -0.1609
    1W        W55351  19.305   4.470   2.441 -0.0206 -0.3960  0.0497
    1W        W55352  19.457  10.399   2.557 -0.1363 -0.0406 -0.3900
    1W        W55353   0.252  23.479   9.392  0.1513  0.0656  0.2075
    1W        W55354   3.354   0.167   0.427  0.1393 -0.1180  0.2040
    1W        W55355  26.692  16.000   1.952  0.0075 -0.0036  0.2092
    1W        W55356   5.396  28.910   0.727  0.0945 -0.1170  0.2750
    1W        W55357   2.466   0.027   0.633  0.2271  0.3209  0.0913
    1W        W55358  22.239  26.347   7.113  0.2983 -0.0024 -0.1227
    1W        W55359  10.603  12.277   9.223 -0.1282  0.0717 -0.0935
    1W        W55360   9.875   4.019   9.421 -0.2333 -0.0829 -0.2758
    1W        W55361  25.220  28.610   0.194  0.1739  0.0317 -0.0405
    1W        W55362   9.512   9.699   8.547  0.0957  0.2123 -0.2257
    1W        W55363   5.071   6.414   2.308 -0.3451  0.4867 -0.0744
    1W        W55364  28.107  12.307   6.295  0.1107  0.0312  0.0074
    1W        W55365  15.088   4.110   1.994  0.0601 -0.2761  0.1642
    1W        W55366   6.667  13.779   6.276  0.1348  0.1162  0.2163
    1W        W55367   0.814   3.180   2.293 -0.1848 -0.0918 -0.0098
    1W        W55368   4.061  17.805   2.394 -0.0477  0.1620 -0.1199
    1W        W55369  13.888  18.778   9.053 -0.1821 -0.0098  0.0492
    1W        W55370  15.790  17.368   1.185  0.0378 -0.0279  0.3128
    1W        W55371  27.872  21.236   7.591  0.0223 -0.1144 -0.0288
    1W        W55372  22.711  15.920   8.782 -0.1520 -0.0117  0.1453
    1W        W55373   2.941  22.044   2.741 -0.4974  0.1458  0.1080
    1W        W55374  14.688   7.963   2.458 -0.2508  0.1648 -0.0625
    1W        W55375  26.489   2.177   3.301 -0.0925 -0.2736  0.1718
    1W        W55376  21.590  24.926   2.492  0.2094  0.3804 -0.2065
    1W        W55377   1.170   2.144   6.266  0.0715 -0.1650  0.2341
    1W        W55378  17.745   9.985   8.474  0.2135 -0.1320 -0.0272
    1W        W55379  22.468  13.588   5.779  0.3052  0.0860  0.0192
    1W        W55380  27.711  11.858   0.600  0.0353  0.0682 -0.3005
    1W        W55381  22.494  25.809   0.710 -0.0121  0.1193 -0.2211
    1W        W55382  27.799  15.750   8.689 -0.0613 -0.0797 -0.2691
    1W        W55383  23.437  17.839   1.564 -0.2932  0.1088 -0.1184
    1W        W55384   7.687   7.591   2.431 -0.1114  0.0286 -0.0299
    1W        W55385  10.175  25.156   8.137 -0.0305  0.2232 -0.0833
    1W        W55386  13.815  12.960   1.601 -0.0405 -0.0963 -0.1710
    1W        W55387   2.981  12.193   6.820  0.0185  0.1652 -0.3514
    1W        W55388  26.822  28.620   0.873 -0.3130 -0.1213  0.2549
    1W        W55389  28.986  15.438   6.684 -0.1066 -0.3139 -0.0849
    1W        W55390  10.508  23.713   6.080 -0.2354  0.0125 -0.0671
    1W        W55391   4.336   7.825   2.520 -0.2243 -0.0019  0.1321
    1W        W55392   0.997  17.957   9.251 -0.0713  0.1169  0.1430
    1W        W55393  29.341   9.970   8.513 -0.0995 -0.1519  0.2507
    1W        W55394  17.143  22.697   6.361 -0.0483 -0.0166 -0.3753
    1W        W55395  11.321  22.574   9.482  0.0374  0.3655  0.1907
    1W        W55396   9.781   0.795   2.742 -0.1142 -0.0648  0.1311
    1W        W55397   7.061  13.560   0.216 -0.1962 -0.3243 -0.2086
    1W        W55398   9.760  14.731   1.810 -0.1904 -0.0425 -0.0212
    1W        W55399  12.740  20.709   9.020  0.1137 -0.0361 -0.0407
    1W        W55400   4.019  18.954   1.594  0.0402  0.1697 -0.0423
    1W        W55401   1.255   0.916   1.996  0.2560  0.2927 -0.0397
    1W        W55402  23.662  22.318   0.736 -0.0063 -0.1650  0.3179
    1W        W55403  17.730  20.913   7.808 -0.1546 -0.0787 -0.0118
    1W        W55404   0.360  29.241   7.099  0.2757 -0.2567 -0.0045
    1W        W55405   3.618  16.373   6.067  0.1858 -0.1513 -0.0383
    1W        W55406   9.636   2.144   0.027 -0.1240 -0.0229  0.2467
    1W        W55407   9.419   3.472   8.430  0.2013 -0.0039 -0.1179
    1W        W55408  17.362  12.362   9.483  0.5543 -0.1040  0.1122
    1W        W55409  10.751  27.940   0.236 -0.1389  0.3631  0.1469
    1W        W55410  16.528  21.524   9.139  0.0803 -0.2008  0.2633
    1W        W55411  23.722   6.316   7.923  0.3546 -0.0961  0.1617
    1W        W55412   1.309  11.135   8.922 -0.0164 -0.0952  0.2979
    1W        W55413  15.852  16.581   1.603 -0.0795  0.4804  0.0757
    1W        W55414  26.518   5.991   2.131 -0.3436  0.3489  0.1361
    1W        W55415  18.272  13.458   0.140  0.1571  0.0383 -0.1841
    1W        W55416  25.444  20.264   9.129 -0.1745 -0.0526 -0.0021
    1W        W55417  10.305  27.022   1.580 -0.1270  0.2619 -0.1116
    1W        W55418  23.899  13.091   6.655 -0.2391  0.0465  0.1809
    1W        W55419   4.489   0.410   0.477  0.2595 -0.2304 -0.2149
    1W        W55420   0.494   3.735   1.695  0.1846 -0.2196  0.6043
    1W        W55421  21.954   8.717   1.992 -0.0203 -0.1068 -0.1952
    1W        W55422   1.643  12.709   6.609  0.0414 -0.1684 -0.4394
    1W        W55423  18.958   0.636   8.979 -0.2212  0.0555 -0.3682
    1W        W55424  29.225  14.453   0.194  0.1388 -0.1101 -0.2267
    1W        W55425   2.160   2.593   2.889 -0.0211 -0.1776  0.2865
    1W        W55426  19.298  28.583   7.713  0.0717  0.4437 -0.2941
    1W        W55427   3.909  28.066   8.228 -0.3009  0.1105 -0.0879
    1W        W55428  15.039  26.731   1.751 -0.0517 -0.1356  0.4409
    1W        W55429  26.924   1.001   8.924 -0.1691  0.0232  0.1917
    1W        W55430  29.235  24.665   1.620 -0.0600  0.0106  0.1047
    1W        W55431  25.341   0.720   8.255 -0.0554  0.0145  0.1230
    1W        W55432  13.673  25.233   8.238  0.0484  0.0281 -0.2346
    1W        W55433  12.670  15.709   7.683  0.3148 -0.0664 -0.0235
    1W        W55434  11.531  23.894   7.990  0.1771  0.1070 -0.1226
    1W        W55435  10.705  12.736   0.416 -0.2370 -0.1419  0.1251
    1W        W55436   8.388  11.194   2.886 -0.0200 -0.0407 -0.2307
    1W        W55437  29.187  29.317   7.298  0.0584  0.0653 -0.1037
    1W        W55438  13.799  18.298   9.057  0.2658  0.0966  0.2490
    1W        W55439  25.217   3.601   8.452  0.3991 -0.2292  0.0021
    1W        W55440  28.308  19.025   7.648 -0.1957 -0.1246 -0.1214
    1W        W55441  15.104  19.783   1.566 -0.2816 -0.3432  0.1431
    1W        W55442  27.825   6.241   9.345  0.1711 -0.0455  0.1292
    1W        W55443  26.740  17.644   2.576  0.1857 -0.0070 -0.0073
    1W        W55444  26.727  19.068   7.527  0.0885  0.1056  0.1124
    1W        W55445  15.741  25.252   0.597 -0.1103 -0.1402 -0.2925
    1W        W55446  10.398   7.147   9.109  0.0145 -0.1091  0.2505
    1W        W55447   1.136  24.639   6.325 -0.1632 -0.0517  0.1442
    1W        W55448  20.635  24.807   2.348 -0.0703 -0.1467  0.0203
    1W        W55449   1.745  17.906   7.664 -0.0176  0.2504  0.2065
    1W        W55450   3.343  15.978   8.960  0.0122  0.3180  0.1136
    1W        W55451  26.791  15.505   0.715  0.1678 -0.0943  0.1754
    1W        W55452  16.571  19.891   1.774  0.0074 -0.1097  0.2038
    1W        W55453  24.965  12.680   8.600 -0.1536  0.2613 -0.1486
    1W        W55454   1.579  29.036   2.051 -0.0853  0.2754 -0.0842
    1W        W55455   5.199  17.850   9.057  0.0838  0.2492 -0.0162
    1W        W55456   9.766  20.604   8.468 -0.0052 -0.2412 -0.0567
    1W        W55457   3.872  20.539   2.735 -0.0345  0.1550  0.4738
    1W        W55458  22.549  14.903   6.401  0.0220 -0.1217 -0.2432
    1W        W55459   0.287  28.885   1.500  0.1540  0.1022 -0.3294
    1W        W55460  15.586  12.581   1.509  0.1892  0.0043 -0.0887
    1W        W55461  18.270  15.583   2.125 -0.1019  0.1076  0.1725
    1W        W55462   6.838   2.216   1.348  0.0098  0.2898  0.2146
    1W        W55463  28.019  11.736   0.988 -0.3264  0.1879  0.0667
    1W        W55464  12.975  25.563   0.373 -0.0772 -0.0239  0.0416
    1W        W55465  16.060   3.953   7.558  0.0209  0.1925  0.0429
    1W        W55466  21.461  16.194   8.594  0.1173 -0.0724 -0.0718
    1W        W55467  13.660  22.367   0.961  0.1334 -0.0599 -0.2216
    1W        W55468   3.795  27.655   7.766  0.2123 -0.1903 -0.0928
    1W        W55469  12.165  22.682   1.953  0.2586  0.3229 -0.0368
    1W        W55470   5.480  17.022   6.943  0.0638 -0.1214  0.1255
    1W        W55471  24.351  28.110   7.939  0.1922 -0.1536 -0.0358
    1W        W55472   9.043   1.143   8.475  0.0724  0.1283  0.1712
    1W        W55473  15.217   3.776   2.309  0.2043  0.2088 -0.1512
    1W        W55474   9.410  16.533   9.132 -0.2006 -0.2935 -0.0353
    1W        W55475  21.142   1.818   6.366  0.0500  0.3486  0.0711
    1W        W55476   7.952  18.943   6.947 -0.0977  0.0045 -0.1706
    1W        W55477   8.525  17.741   1.704 -0.0366 -0.0708 -0.0167
    1W        W55478   2.816  27.727   1.745  0.1494 -0.1569 -0.1910
    1W        W55479   0.324  28.496   9.316 -0.0934  0.0947  0.1979
    1W        W55480  21.448  26.657   3.252 -0.0815  0.2342 -0.0971
    1W        W55481  26.925  10.815   2.909 -0.2538  0.6013  0.0048
    1W        W55482   8.227   8.742   8.980  0.5452  0.6239 -0.1758
    1W        W55483  18.043  12.237   6.857 -0.4173 -0.0594  0.2874
    1W        W55484  14.733   3.721   7.908 -0.4343  0.1406  0.1565
    1W        W55485  26.611  20.700   0.967  0.2766 -0.0593 -0.0972
    1W        W55486  28.598   3.142   6.147  0.1524  0.1016 -0.3849
    1W        W55487   7.826  28.742   8.915  0.2281 -0.0576 -0.2964
    1W        W55488  12.340  18.053   7.365 -0.1876 -0.1462 -0.0815
    1W        W55489  17.254  27.786   9.636 -0.4351 -0.1013  0.0152
    1W        W55490   5.238  24.262   7.839  0.2199  0.1261  0.0441
    1W        W55491   1.677   5.946   8.271  0.0946  0.1358 -0.1069
    1W        W55492   7.345  14.207   6.778  0.0614  0.3716 -0.0408
    1W        W55493   5.477  19.646   0.029  0.0281 -0.2216 -0.0164
    1W        W55494  19.596  24.723   0.552 -0.0714  0.1842  0.1705
    1W        W55495   9.035  15.722   0.475  0.0323 -0.0084  0.1333
    1W        W55496  29.354   7.026   1.599  0.2670 -0.0769 -0.2716
    1W        W55497  26.785  15.106   6.655 -0.1601  0.0523 -0.0834
    1W        W55498   2.413  11.852   1.832 -0.0227  0.2183 -0.2467
    1W        W55499   2.831   0.231   3.535  0.1279 -0.0809 -0.0151
    1W        W55500  15.986  11.167   0.817 -0.0616 -0.2464 -0.0002
    1W        W55501  13.358  20.404   7.066 -0.3802 -0.1491 -0.1619
    1W        W55502  23.602  19.536   8.538 -0.0734  0.0089  0.0741
    1W        W55503  24.450  16.227   1.731  0.2472  0.2108  0.1501
    1W        W55504   9.324  28.886   6.955  0.2550 -0.0236  0.4456
    1W        W55505   1.370  21.739   1.345  0.1115 -0.0143 -0.0123
    1W        W55506  15.476  10.047   7.160 -0.0400  0.0269 -0.0214
    1W        W55507  17.501  18.078   0.825  0.2056  0.3411 -0.3898
    1W        W55508  19.291  15.870   0.608  0.0051  0.2398 -0.1507
    1W        W55509  25.606  14.171   5.800 -0.2714 -0.0046 -0.1933
    1W        W55510   6.110  17.395   7.250 -0.1695  0.0903  0.0044
    1W        W55511  29.360  22.525   9.569 -0.2256  0.4827 -0.0201
    1W        W55512  12.006  16.900   8.371 -0.2189 -0.0371 -0.2996
    1W        W55513  10.752   0.853   7.829  0.3221 -0.1917  0.0201
    1W        W55514  11.537  16.937   2.443  0.0504 -0.3399  0.2790
    1W        W55515  28.950  20.329   1.424  0.0927 -0.0386  0.1220
    1W        W55516   4.991  21.105   7.697 -0.0952 -0.0630 -0.0357
    1W        W55517   9.054   6.762   1.461  0.0527  0.3308  0.1908
    1W        W55518  17.088  15.768   9.386 -0.1597  0.1676 -0.3135
    1W        W55519  15.395   0.870   3.101  0.0614  0.0312 -0.2934
    1W        W55520  26.221  11.963   7.006 -0.2433 -0.0898  0.2161
    1W        W55521  14.048  16.786   1.321  0.1274  0.2038 -0.0077
    1W        W55522  14.779  16.716   7.874 -0.1243  0.1021 -0.0396
    1W        W55523  11.096   2.408   9.195  0.0420  0.0173 -0.3281
    1W        W55524   1.848  22.151   6.991  0.0456  0.1299 -0.0149
    1W        W55525   1.018   1.503   9.506 -0.2513  0.1000  0.1243
    1W        W55526  28.151  26.642   1.902 -0.1935 -0.0746 -0.1962
    1W        W55527  13.103   5.202   3.532 -0.2652  0.0962  0.0615
    1W        W55528  20.141   4.326   8.084  0.2347  0.1143 -0.0592
    1W        W55529  23.017  15.966   1.094 -0.3033 -0.4588  0.2311
    1W        W55530   6.920  27.562   0.651 -0.2106 -0.0660 -0.1233
    1W        W55531  26.409   7.851   6.464 -0.1280 -0.1161 -0.1224
    1W        W55532   6.647  27.822   0.168 -0.2414  0.2063  0.2091
    1W        W55533  28.233   8.409   8.477  0.0827  0.0217  0.2156
    1W        W55534   5.251  22.732   0.992  0.1124 -0.0340  0.1838
    1W        W55535   0.853   2.005   1.134  0.1740 -0.2524  0.1353
    1W        W55536  25.185  22.596   7.011  0.1383  0.0742 -0.1978
    1W        W55537  15.049  23.058   7.213  0.1229 -0.4303  0.0630
    1W        W55538  23.287   6.400   2.867  0.1169 -0.0579 -0.1374
    1W        W55539  23.541   5.304   1.779 -0.3145  0.0718 -0.0003
    1W        W55540  17.482  28.988   8.288  0.0918 -0.1583  0.0475
    1W        W55541  12.021   3.083   9.308 -0.1873 -0.1124  0.2542
    1W        W55542  11.932  27.469   3.025  0.3301  0.3487 -0.2555
    1W        W55543  24.383  20.303   2.637  0.3296  0.1177  0.6858
    1W        W55544  26.696  26.363   2.410  0.1086 -0.3017  0.2139
    1W        W55545  17.207   3.721   2.401  0.0514  0.1259  0.2038
    1W        W55546  26.784   5.254   1.034 -0.1215  0.0659  0.0076
    1W        W55547  21.299  13.407   0.637  0.0498  0.0578  0.0173
    1W        W55548  27.379   9.796   6.842  0.1921 -0.1586 -0.1421
    1W        W55549  12.249  11.016   1.822  0.2525  0.1251 -0.1553
    1W        W55550   7.115   2.154   6.882  0.2062  0.3919  0.0429
    1W        W55551  22.413  15.269   0.683  0.1924 -0.0124 -0.1513
    1W        W55552   3.982   1.814   1.965  0.0320 -0.0782  0.2527
    1W        W55553  24.321  10.059   1.592  0.1540  0.1953 -0.1729
    1W        W55554   7.795   1.737   3.163 -0.0037 -0.3388 -0.0284
    1W        W55555  16.376   4.689   8.753 -0.1815  0.0823  0.2986
    1W        W55556  14.100  28.341   2.862 -0.1988 -0.0610  0.0572
    1W        W55557  27.386  22.700   7.837 -0.2026  0.1537  0.1504
    1W        W55558  23.088  26.437   6.553  0.0359 -0.0070 -0.2962
    1W        W55559   0.001  29.237   3.356 -0.0502  0.4670 -0.3518
    1W        W55560  21.286   4.905   8.529  0.1300  0.1572  0.0191
    1W        W55561   2.080  23.725   0.260 -0.0752 -0.1492  0.0588
    1W        W55562   5.130  22.835   0.533  0.0623 -0.0689  0.1796
    1W        W55563   1.463   6.564   7.379  0.1174 -0.0103 -0.2423
    1W        W55564  22.601  12.103   7.365  0.0427 -0.0864  0.1418
    1W        W55565  26.937  12.877   1.929  0.0156  0.0395  0.0247
    1W        W55566  29.239  26.225   9.274  0.1730 -0.2280 -0.1365
    1W        W55567  24.569   5.538   1.988 -0.1796  0.1128 -0.0086
    1W        W55568   6.444  11.265   2.343 -0.1074 -0.0294 -0.3893
    1W        W55569  15.655   1.246   1.044 -0.0220 -0.0056 -0.0445
    1W        W55570  28.687   4.585   0.137  0.2781 -0.0254  0.0156
    1W        W55571   7.694   4.077   1.075  0.1218 -0.2416 -0.2112
    1W        W55572   3.230   9.836   2.815 -0.2313  0.0464  0.0596
    1W        W55573  10.140  13.860   2.147  0.1908  0.2365 -0.2273
    1W        W55574  10.232   4.449   7.280  0.0313  0.1776 -0.0088
    1W        W55575  28.617  28.608   9.468  0.1643  0.2457 -0.0784
    1W        W55576   7.734   4.477   2.918  0.1336  0.2864 -0.0141
    1W        W55577  21.531  25.291   1.513  0.0341  0.1242  0.0519
    1W        W55578  24.468   2.381   7.693 -0.4711  0.1376  0.2643
    1W        W55579   5.469  19.703   6.481  0.2580 -0.1411  0.0913
    1W        W55580   1.355  11.589   6.528 -0.1595 -0.0684 -0.1958
    1W        W55581   6.579   5.363   0.123  0.4305  0.3355 -0.0229
    1W        W55582  18.025   8.506   2.508 -0.0496  0.0033 -0.3096
    1W        W55583  16.033  24.496   0.861 -0.2513  0.2207 -0.2727
    1W        W55584   2.190   0.691   2.549 -0.4193  0.0924  0.0985
    1W        W55585  22.781  21.025   0.593 -0.4481 -0.0692 -0.1064
    1W        W55586  22.784  17.034   2.491  0.1226  0.1572 -0.0926
    1W        W55587   8.270   5.644   7.505 -0.1031 -0.1427  0.1357
    1W        W55588   8.945  26.427   3.561 -0.3609 -0.1950 -0.0971
    1W        W55589   6.941  22.941   7.384  0.0742 -0.3114  0.0721
    1W        W55590  17.853   4.440   7.430  0.1893  0.1882 -0.1635
    1W        W55591  11.384  21.310   7.512 -0.0006 -0.4290 -0.1936
    1W        W55592  23.883  19.250   1.281 -0.0308  0.2635  0.0898
    1W        W55593  19.547  24.094   8.957 -0.1235 -0.6092 -0.0569
    1W        W55594  18.046  20.152   0.974  0.0796  0.3157 -0.1706
    1W        W55595   0.616  13.044   8.987 -0.1695  0.0448 -0.3127
    1W        W55596  13.826  28.034   3.172 -0.0018  0.1600  0.2881
    1W        W55597  18.308  21.982   8.058  0.1825 -0.0476  0.0843
    1W        W55598  27.909  24.602   6.902 -0.2589  0.1175 -0.0936
    1W        W55599   4.262   7.181   9.157 -0.2239  0.2010 -0.1384
    1W        W55600  13.946   6.774   0.127  0.1625  0.0163 -0.0672
    1W        W55601  28.069   8.712   8.895 -0.0143  0.1612 -0.0081
    1W        W55602   5.837   2.629   1.726  0.0462 -0.3150  0.1696
    1W        W55603  17.964   3.690   7.753 -0.2974  0.3457 -0.0087
    1W        W55604  26.090  28.367   0.205 -0.0769  0.0824 -0.1163
    1W        W55605   0.719  19.584   2.656  0.1864 -0.3292 -0.0182
    1W        W55606  25.067  17.186   2.611  0.0868 -0.2458  0.2032
    1W        W55607  21.712   2.705   7.412 -0.2504  0.2196 -0.0211
    1W        W55608   7.613   0.639   8.667  0.0830  0.2426 -0.2469
    1W        W55609   8.069  28.564   0.276  0.0263  0.0731 -0.0905
    1W        W55610  11.720  12.569   1.583  0.0357  0.1987  0.3663
    1W        W55611  22.982   9.137   0.619 -0.4114 -0.0084 -0.1238
    1W        W55612  20.785  12.223   1.677 -0.0963 -0.1582  0.0788
    1W        W55613  29.164  28.549   9.388 -0.3040 -0.1244 -0.1746
    1W        W55614   8.118  27.260   1.613  0.2179 -0.2169 -0.1741
    1W        W55615  21.634   0.828   7.633 -0.1716 -0.2673 -0.0044
    1W        W55616  21.542  24.943   3.694  0.0347  0.0100  0.1729
    1W        W55617   3.901  28.090   9.062  0.3412 -0.0831  0.2694
    1W        W55618  28.169  18.106   6.157  0.0585 -0.0989  0.1366
    1W        W55619   7.157  19.188   6.399  0.0056  0.0573 -0.0656
    1W        W55620   0.841  13.422   9.203  0.0270 -0.1545  0.0991
    1W        W55621  10.363  14.331   7.807 -0.1426 -0.1429 -0.1900
    1W        W55622  14.574   1.241   3.355  0.1919 -0.0106  0.0509
    1W        W55623  18.070  10.579   2.164  0.0564  0.1286  0.0090
    1W        W55624  27.894  11.559   6.816  0.1905  0.2435  0.1601
    1W        W55625  14.512   4.787   0.678 -0.0949 -0.2216 -0.0291
    1W        W55626   1.960  20.925   6.720 -0.0125  0.0460  0.1007
    1W        W55627  20.193   0.454   8.204 -0.1993  0.2305 -0.0259
    1W        W55628   1.737   4.084   0.455 -0.0446  0.1942 -0.0800
    1W        W55629  28.915   5.741   7.544 -0.1184  0.1050 -0.1360
    1W        W55630  20.143  22.887   7.408 -0.0937  0.4766  0.2039
    1W        W55631  27.398  20.724   2.882 -0.0804  0.0854  0.0564
    1W        W55632  16.536  10.660   2.148  0.0345 -0.1987 -0.0698
    1W        W55633  25.651   9.022   8.031  0.1991 -0.2245  0.0836
    1W        W55634  17.177  26.773   1.476  0.1688  0.2331  0.0600
    1W        W55635  16.074  21.616   2.711 -0.2652 -0.0572  0.0514
    1W        W55636  22.805  15.786   9.351 -0.2800 -0.0482 -0.0999
    1W        W55637   7.228  12.072   8.352 -0.0002  0.1153 -0.2927
    1W        W55638  17.931  29.003   0.579 -0.0444  0.2031  0.3209
    1W        W55639  29.328  20.848   1.227 -0.1865  0.0405  0.0991
    1W        W55640   7.922  18.091   8.076 -0.1844  0.2157 -0.0680
    1W        W55641  19.772  11.302   2.339  0.2187  0.0171 -0.1394
    1W        W55642  20.794   7.157   0.347 -0.1983  0.1329  0.0424
    1W        W55643  16.413   4.115   2.289 -0.1476 -0.0272 -0.1563
    1W        W55644  29.075  22.752   8.323  0.1911 -0.2230  0.1730
    1W        W55645   4.633   7.750   9.309  0.0242  0.1298 -0.2605
    1W        W55646   8.492   6.128   8.212 -0.0471 -0.1489 -0.0185
    1W        W55647  10.403  23.754   1.432  0.0515  0.0643 -0.1161
    1W        W55648  19.459  26.315   8.218 -0.1751  0.4111  0.0710
    1W        W55649  21.162  16.484   0.719  0.1644  0.0725  0.0413
    1W        W55650  10.264  23.960   8.927 -0.1378  0.0636  0.2443
    1W        W55651   4.721  25.975   9.413 -0.0316 -0.1825 -0.0675
    1W        W55652   5.389  14.089   8.445  0.1224 -0.0929 -0.0905
    1W        W55653  25.232  14.214   1.514  0.1495  0.2006 -0.1309
    1W        W55654   4.796   4.049   7.618  0.1362 -0.0052 -0.1734
    1W        W55655  24.216  23.693   2.927 -0.1761  0.0072 -0.1010
    1W        W55656  25.287  23.095   0.173  0.2490 -0.3620 -0.0669
    1W        W55657  13.321  23.220   7.662 -0.0155 -0.2166  0.0407
    1W        W55658  27.820   6.531   7.719 -0.1389 -0.0065 -0.0835
    1W        W55659  16.909   5.891   0.183 -0.1190  0.1068 -0.0468
    1W        W55660  20.607  14.465   8.538  0.2203 -0.0101 -0.0609
    1W        W55661   0.459  29.090   8.466 -0.0162 -0.0042  0.1433
    1W        W55662   8.486  17.660   0.182  0.0735  0.3352  0.2883
    1W        W55663  14.907   6.845   7.625  0.1381  0.0410  0.0274
    1W        W55664  28.172  18.416   0.891  0.2018 -0.1149 -0.2509
    1W        W55665  25.704  25.430   8.560  0.3595  0.3298  0.2144
    1W        W55666   9.972  11.325   8.898 -0.0568 -0.1010  0.1866
    1W        W55667  13.858  22.597   0.454 -0.3424 -0.1327 -0.1735
    1W        W55668   0.335  11.932   1.682 -0.1226 -0.2495 -0.2167
    1W        W55669  19.189  24.445   7.582  0.1659 -0.1643  0.2750
    1W        W55670   8.171  10.839   6.732 -0.1708  0.1750 -0.1947
    1W        W55671  28.947  13.512   7.424 -0.2691  0.3687  0.1061
    1W        W55672  27.974   4.457   7.998 -0.3876  0.0287  0.2678
    1W        W55673  26.147  25.582   8.845  0.2502 -0.3107  0.1207
    1W        W55674   8.804   5.496   0.102  0.2883 -0.1034  0.0518
    1W        W55675  29.222  17.309   8.141 -0.0443 -0.0906  0.0873
    1W        W55676  16.644  22.737   0.215 -0.3343  0.1225  0.0316
    1W        W55677  27.251   2.896   1.213 -0.2945 -0.1654 -0.1659
    1W        W55678  13.994  26.613   1.892  0.0076 -0.1000  0.0571
    1W        W55679  20.768   2.737   1.072 -0.2453  0.1338  0.0913
    1W        W55680  20.335  16.264   9.222  0.2055  0.0992  0.1051
    1W        W55681   8.468  20.251   8.081  0.3486  0.2515  0.0648
    1W        W55682   3.013   7.249   2.337  0.1314 -0.1331  0.1813
    1W        W55683  15.861  15.801   8.470 -0.2050  0.0085 -0.2341
    1W        W55684   9.956  20.961   5.864 -0.0637 -0.0357  0.0360
    1W        W55685  27.142   6.958   6.504 -0.1457  0.1112 -0.4015
    1W        W55686  28.724   8.546   7.799 -0.2524 -0.0599 -0.3934
    1W        W55687  25.674   8.499   0.063 -0.0784 -0.1866 -0.0001
    1W        W55688  22.283  26.367   2.023  0.1318  0.1135  0.0557
    1W        W55689  13.126   8.884   8.022 -0.0606 -0.2417  0.2643
    1W        W55690   3.868   0.093   8.864  0.1555  0.0357  0.0815
    1W        W55691  17.661   5.890   1.204 -0.0671  0.0307  0.3931
    1W        W55692  16.890   2.950   7.014  0.2179 -0.0923 -0.1615
    1W        W55693   4.528  27.255   7.944 -0.1265  0.1820 -0.0409
    1W        W55694  22.563   2.130   6.891  0.0258 -0.1201  0.2960
    1W        W55695  18.284   7.669   0.362  0.2222  0.2628  0.2540
    1W        W55696   2.881  10.726   9.632 -0.1571 -0.0858  0.2141
    1W        W55697   4.535  23.324   1.134  0.1183 -0.0401  0.0490
    1W        W55698  20.623   8.181   1.022  0.1092 -0.1601  0.1047
    1W        W55699  24.088  28.167   2.496  0.2459 -0.0957  0.0379
    1W        W55700   0.154   2.439   6.712  0.4346 -0.1737 -0.1380
    1W        W55701   4.346  28.718   9.407 -0.4951 -0.3401 -0.0317
    1W        W55702  28.736   9.864   0.670 -0.0322  0.2144  0.0664
    1W        W55703   8.108  22.890   6.318 -0.3147 -0.1079 -0.1299
    1W        W55704  17.654  10.781   8.577  0.1736  0.1214 -0.1043
    1W        W55705   5.192  14.353   0.415  0.1144 -0.2714  0.2525
    1W        W55706  10.228  17.043   9.164  0.0613 -0.2753 -0.0986
    1W        W55707  11.399  16.000   1.403 -0.1426 -0.0783 -0.2667
    1W        W55708  16.222   8.175   8.081  0.0737  0.0397  0.1743
    1W        W55709   7.947  16.461   6.758 -0.1836  0.2647 -0.0931
    1W        W55710  18.802   8.244   2.439  0.0114  0.0153 -0.1935
    1W        W55711   1.800  23.347   2.791 -0.1348  0.0609 -0.1217
    1W        W55712  14.601  26.615   8.239  0.0135 -0.2078  0.2577
    1W        W55713   6.809   6.501   8.242 -0.2273  0.2006  0.2204
    1W        W55714   4.467  12.763   7.892  0.3219 -0.0444  0.0714
    1W        W55715  25.667   0.207   0.779 -0.0752 -0.1846 -0.5008
    1W        W55716  17.267   7.683   7.264  0.0470  0.3153 -0.1717
    1W        W55717  27.072  25.389   1.123  0.4065 -0.1886 -0.0034
    1W        W55718  13.589  24.878   9.654 -0.1775 -0.4170  0.0725
    1W        W55719   9.010  25.961   1.778  0.0449  0.1998 -0.1945
    1W        W55720  20.144  16.984   0.359 -0.1162  0.2217  0.3144
    1W        W55721  28.713  23.727   7.730 -0.1050 -0.0815 -0.1292
    1W        W55722  26.725   1.601   0.599 -0.1154 -0.2663  0.0764
    1W        W55723  24.105   5.367   7.385  0.1141  0.2758  0.4224
    1W        W55724  10.517  16.320   2.182  0.0949 -0.0310 -0.0452
    1W        W55725  22.806   4.252   6.863  0.1221 -0.1929 -0.1559
    1W        W55726  23.649  21.483   7.955 -0.1112  0.0682  0.0863
    1W        W55727  27.586  21.823   8.492 -0.1173 -0.2699  0.2552
    1W        W55728   2.222  13.048   8.516 -0.3405 -0.3337 -0.0185
    1W        W55729   9.037   0.153   8.102 -0.1960  0.3002  0.1262
    1W        W55730  26.819   8.187   8.892 -0.1464 -0.1305 -0.0262
    1W        W55731  19.864  10.343   2.195  0.0418  0.1398  0.1386
    1W        W55732  15.059  23.420   1.552 -0.0383  0.2086 -0.1851
    1W        W55733  21.767   2.369   2.277 -0.1166  0.0052  0.3184
    1W        W55734  25.343   6.858   8.077  0.0856  0.0746 -0.0480
    1W        W55735   1.895   7.466   0.912  0.0185  0.0151  0.2319
    1W        W55736   0.775   5.464   5.467 -0.2492 -0.1151 -0.0022
    1W        W55737   9.475  23.765   9.516  0.2242  0.1079 -0.1165
    1W        W55738  11.672  22.278   7.583  0.2317 -0.4538  0.2071
    1W        W55739   0.944  14.067   6.094 -0.1158 -0.0048  0.0196
    1W        W55740   4.218  27.896   6.955 -0.2127  0.2373 -0.2137
    1W        W55741   9.518   7.007   1.573  0.3057 -0.0772 -0.3744
    1W        W55742  24.519  22.442   6.413 -0.0106  0.0489  0.1853
    1W        W55743  25.166   1.713   9.385 -0.2015  0.0707  0.1012
    1W        W55744   6.994  20.619   6.825  0.1231 -0.3223 -0.1149
    1W        W55745  25.200  27.992   8.642 -0.0877 -0.1386  0.0180
    1W        W55746  16.190  18.585   9.668 -0.3281  0.2250 -0.0136
    1W        W55747  20.061  10.992   7.985  0.0019  0.2138  0.1239
    1W        W55748  26.537  26.505   7.416  0.0055  0.2073 -0.3241
    1W        W55749  24.374  23.821   6.081 -0.1713 -0.2081  0.0622
    1W        W55750   9.932  23.331   6.484 -0.1706  0.0499  0.2415
    1W        W55751  15.972  17.340   7.962 -0.2433 -0.1224 -0.1154
    1W        W55752  20.979   2.098   9.350 -0.1251  0.0184  0.1297
    1W        W55753   2.736   4.721   2.788  0.0067  0.2871  0.0974
    1W        W55754  13.928  24.554   7.745 -0.2749  0.0194  0.2479
    1W        W55755   9.301   5.889   9.068  0.2065  0.0158 -0.1840
    1W        W55756  12.214  23.604   9.237  0.1647  0.1666  0.0122
    1W        W55757   7.289   9.257   9.654 -0.0452  0.0256  0.3076
    1W        W55758   1.204   9.516   7.001  0.0837 -0.1106  0.3550
    1W        W55759  20.833  24.749   1.840 -0.2507  0.1148  0.0984
    1W        W55760  24.392  18.925   6.594 -0.0479  0.0684  0.0177
    1W        W55761  17.923   9.289   1.974  0.0266  0.1983  0.2097
    1W        W55762  23.852  17.800   2.024 -0.1197 -0.0638  0.1007
    1W        W55763   2.131   7.239   6.410 -0.1096  0.1274 -0.4075
    1W        W55764   2.763  29.045   8.952  0.0434 -0.1807  0.0193
    1W        W55765  12.366   9.849   1.488  0.0900 -0.0391 -0.0809
    1W        W55766   6.212  17.009   1.336 -0.0251 -0.1737  0.2140
    1W        W55767   7.104  17.105   0.915  0.0587  0.0530 -0.3026
    1W        W55768  26.040  29.100   7.202 -0.2995 -0.1293 -0.0106
    1W        W55769  10.335  20.538   8.730  0.0008 -0.0515  0.0463
    1W        W55770   3.679  17.087   7.162 -0.0534  0.2661  0.1341
    1W        W55771  27.745  25.421   8.293  0.3130 -0.0315 -0.2262
    1W        W55772  28.374  12.853   8.692 -0.1393 -0.0149  0.0676
    1W        W55773   1.403  24.158   6.213 -0.0937  0.4768 -0.6350
    1W        W55774  19.019  20.422   7.706  0.0791  0.0486 -0.0565
    1W        W55775  19.496  19.091   2.910 -0.2370  0.0194  0.1766
    1W        W55776   3.760  25.217   7.686  0.0422  0.1088 -0.1282
    1W        W55777  11.105  18.798   7.660  0.0694  0.0731 -0.1012
    1W        W55778   8.358  27.706   2.329 -0.0119 -0.0235 -0.2078
    1W        W55779   5.261  29.104   9.236 -0.0084 -0.0846  0.1049
    1W        W55780  19.152  10.100   7.319 -0.0555 -0.2106  0.3376
    1W        W55781   5.677   4.001   7.709  0.1671 -0.1131  0.1357
    1W        W55782  21.095   3.922   2.204  0.0556  0.2183 -0.0920
    1W        W55783   2.167  23.851   7.562  0.0888 -0.0390 -0.0054
    1W        W55784  19.101  18.008   1.614  0.2487  0.2628 -0.0425
    1W        W55785  14.942  26.218   8.103  0.2060  0.3846  0.0176
    1W        W55786  14.179  14.049   2.838  0.1079 -0.2694 -0.0788
    1W        W55787  13.392  13.318   0.535 -0.1174  0.2147 -0.3370
    1W        W55788  22.459  20.849   9.101  0.1276  0.1575  0.2849
    1W        W55789  23.658   6.302   3.154 -0.1495 -0.1963 -0.0398
    1W        W55790   3.771   4.585   0.409  0.0204 -0.0062 -0.0395
    1W        W55791  25.296  13.519   6.383 -0.2282  0.1326  0.3127
    1W        W55792   9.956  22.548   7.591 -0.0253  0.0805  0.2354
    1W        W55793  21.798  26.952   1.983 -0.1124 -0.3334  0.0962
    1W        W55794   1.444  19.878   5.710 -0.0904 -0.1865  0.0594
    1W        W55795  28.790  29.042   3.297 -0.2425  0.0432 -0.1013
    1W        W55796  21.063   0.264   7.298  0.3393  0.0501 -0.0647
    1W        W55797  10.777  28.294   8.471 -0.1126  0.2565 -0.1045
    1W        W55798  27.932   2.135   0.016 -0.4520 -0.0510  0.2236
    1W        W55799   3.622   6.538   1.276 -0.0376 -0.1937  0.1241
    1W        W55800   6.778  14.309   7.157 -0.0816  0.1586  0.0071
    1W        W55801   9.694  17.645   7.583  0.4360  0.2764  0.0738
    1W        W55802   8.385  10.252   2.609  0.1491  0.1770  0.0217
    1W        W55803  15.247  22.342   1.864  0.0451 -0.2848  0.1058
    1W        W55804  29.286   7.222   6.562 -0.0254 -0.1553  0.0597
    1W        W55805   4.123   3.411   1.957 -0.1770  0.1027  0.0114
    1W        W55806   4.856  14.320   7.170  0.3690  0.0100 -0.2689
    1W        W55807  17.654  21.843   6.989  0.2985  0.0598  0.0708
    1W        W55808   1.843   8.835   0.623 -0.1774  0.0582 -0.0610
    1W        W55809  27.781   2.413   7.085 -0.0918 -0.0806  0.1684
    1W        W55810  22.929   2.393   9.215 -0.0639  0.0353  0.3996
    1W        W55811  17.816  17.895   0.364  0.3633 -0.1935  0.2827
    1W        W55812   2.789  27.580   2.697 -0.0681 -0.3704  0.1840
    1W        W55813  21.548  15.793   1.819 -0.0598  0.0848 -0.0386
    1W        W55814   0.355  13.126   1.764  0.1999  0.3400  0.3597
    1W        W55815  24.778  16.508   8.676 -0.5605  0.1698 -0.1274
    1W        W55816   3.122   1.041   1.648  0.2363 -0.2861 -0.2824
    1W        W55817  27.127   5.055   1.343 -0.1937  0.2633  0.1826
    1W        W55818   7.947   7.486   2.024 -0.0101  0.2635  0.1090
    1W        W55819  11.837  27.200   8.395 -0.3531 -0.1035  0.0014
    1W        W55820  20.449  21.349   2.210  0.2416 -0.1497  0.1404
    1W        W55821  14.936  17.683   7.933  0.0141 -0.0248 -0.2133
    1W        W55822  17.540  16.609   9.526 -0.0427 -0.2561  0.1893
    1W        W55823  13.238   4.658   2.368 -0.1681 -0.1292  0.0294
    1W        W55824   8.271   0.818   7.993  0.1137  0.0898 -0.2605
    1W        W55825   0.461  20.545   6.240 -0.2697  0.0191 -0.4090
    1W        W55826  21.096  14.940   1.647  0.1182 -0.0036 -0.2502
    1W        W55827  21.459   5.708   2.538 -0.1665 -0.0723  0.1605
    1W        W55828  23.630   1.933   8.833 -0.1468  0.1059  0.3374
    1W        W55829   6.589  25.629   1.312  0.1295  0.2128 -0.3107
    1W        W55830   2.860  15.605   1.451  0.3090 -0.3075  0.3347
    1W        W55831   8.102  25.220   9.018 -0.1216 -0.1279 -0.0922
    1W        W55832  28.987   0.441   0.242 -0.1560 -0.1179 -0.1268
    1W        W55833  26.248   6.277   7.108  0.1192 -0.3164 -0.2189
    1W        W55834  23.272  12.636   6.505  0.0898  0.0273 -0.0127
    1W        W55835   3.096  11.445   7.094 -0.0109 -0.1513  0.0863
    1W        W55836  12.499  12.419   0.416 -0.1434 -0.2733 -0.2644
    1W        W55837  22.720  29.112   6.959  0.2410 -0.0238  0.0339
    1W        W55838   0.923  27.373   9.277  0.1678  0.2792 -0.2458
    1W        W55839   2.560  19.497   8.211  0.3800  0.0548 -0.0972
    1W        W55840  17.856  16.670   8.274 -0.0473  0.2086  0.3277
    1W        W55841   3.347   0.955   3.424 -0.0378  0.0453 -0.1525
    1W        W55842  21.836   1.920   8.348 -0.0861  0.0137  0.2026
    1W        W55843  17.214   6.810   8.007 -0.2701  0.1443  0.2318
    1W        W55844   9.497  14.641   1.357  0.0645  0.1268  0.1294
    1W        W55845  14.618  24.858   6.980 -0.4752  0.0357  0.2656
    1W        W55846  10.946  20.700   6.545  0.1613  0.2739  0.0719
    1W        W55847   5.802   4.142   1.839  0.1509 -0.0484 -0.2516
    1W        W55848  12.843   8.599   1.440  0.0900  0.0046 -0.0154
    1W        W55849  10.315  14.900   6.926 -0.2788 -0.1003  0.0519
    1W        W55850   5.864   2.817   0.897  0.1035 -0.1330 -0.1571
    1W        W55851   7.466   3.690   0.658 -0.0968  0.0382  0.0270
    1W        W55852  21.033  23.713   9.317  0.1163 -0.2021  0.0980
    1W        W55853  10.841  25.757   9.646 -0.0892  0.0922  0.0845
    1W        W55854  23.886   1.947   7.025 -0.1008  0.1633  0.1467
    1W        W55855  24.305  23.511   6.975  0.1634  0.0453 -0.0839
    1W        W55856  11.137  28.527   9.141 -0.0169  0.2137  0.0192
    1W        W55857   8.460   2.402   6.791 -0.1332 -0.1741  0.3344
    1W        W55858   9.460   2.798   2.299  0.0100 -0.0449 -0.1660
    1W        W55859  16.724  12.408   8.165 -0.1092 -0.1060  0.3500
    1W        W55860   3.919  19.849   8.674  0.0461 -0.0946 -0.1606
    1W        W55861  23.386  10.780   0.943  0.0968  0.0888 -0.0259
    1W        W55862  26.706   5.111   7.315  0.1737  0.2028  0.1971
    1W        W55863  12.380  28.724   8.973  0.2802 -0.2216 -0.4337
    1W        W55864  17.274  25.330   1.351 -0.2971  0.0430  0.0087
    1W        W55865   3.035   8.404   9.337 -0.0567  0.0745 -0.0653
    1W        W55866  28.186  23.270   1.545 -0.2631  0.1751 -0.1965
    1W        W55867   2.360   8.543   8.689  0.0977 -0.0951 -0.0052
    1W        W55868  24.757   3.546   8.717 -0.3623  0.0575  0.2907
    1W        W55869  14.838   0.601   8.581 -0.2604  0.0173 -0.2355
    1W        W55870  14.587   4.021   2.241  0.3450  0.1375 -0.2439
    1W        W55871  21.867   7.127   8.458 -0.0567 -0.1497  0.0803
    1W        W55872  26.461  27.676   7.754 -0.1174  0.0603  0.0406
    1W        W55873  20.415  26.599   9.636 -0.2247  0.1805 -0.0091
    1W        W55874  28.657  17.127   6.432  0.3815  0.2588  0.0597
    1W        W55875  10.430   4.382   7.736  0.2604  0.0322 -0.2165
    1W        W55876  19.896   0.016   0.156 -0.0642 -0.0249 -0.1216
    1W        W55877   1.825   2.696   6.777  0.2423 -0.3716  0.0816
    1W        W55878   6.572  24.042   2.479  0.2165  0.1347 -0.1113
    1W        W55879  16.193  20.135   1.545  0.1754  0.2032 -0.5513
    1W        W55880  23.436  20.467   7.245 -0.3746 -0.2614 -0.0912
    1W        W55881  19.347  14.413   2.626  0.1041 -0.0597  0.0401
    1W        W55882  23.313   5.844   6.991 -0.2505 -0.0425 -0.0671
    1W        W55883   6.227  10.574   2.980 -0.1620 -0.3243 -0.0797
    1W        W55884   1.014   4.138   9.541  0.2656  0.2911 -0.0658
    1W        W55885  11.675  27.331   2.550  0.1163 -0.1075 -0.0380
    1W        W55886  22.695  23.419   9.295 -0.3023 -0.1643  0.2324
    1W        W55887   6.735   2.755   7.232  0.3428 -0.1221  0.4179
    1W        W55888  24.102   1.493   7.189 -0.3472 -0.1522  0.5009
    1W        W55889   1.497   2.037   9.218  0.2686 -0.2382  0.2469
    1W        W55890  17.480   3.078   7.597 -0.0759  0.1134 -0.2936
    1W        W55891  29.105  26.043   6.800 -0.0482  0.0343 -0.0403
    1W        W55892   8.649  19.738   0.413 -0.5869  0.0979 -0.1002
    1W        W55893   3.419  15.675   2.140  0.3237  0.0492  0.0541
    1W        W55894  20.555  21.761   7.394  0.1900  0.1190  0.2335
    1W        W55895  22.459  19.468   2.447 -0.0553 -0.1388  0.0036
    1W        W55896  21.031  10.900   7.678 -0.0609 -0.0431  0.3193
    1W        W55897   7.313   0.272   7.622 -0.3499 -0.1257  0.2812
    1W        W55898  27.134   9.064   9.265  0.0056  0.0296 -0.0469
    1W        W55899  14.381   0.441   9.549  0.1649 -0.3736 -0.1256
    1W        W55900  16.102   2.525   8.671  0.1145  0.1651  0.1246
    1W        W55901  19.320   2.689   0.311 -0.1545  0.1485  0.1282
    1W        W55902   7.655  10.315   0.127  0.2076 -0.3741  0.1131
    1W        W55903  17.111  25.506   8.471 -0.4167  0.4425  0.0068
    1W        W55904  14.714   9.873   0.722  0.0218 -0.0246  0.0329
    1W        W55905   5.511  20.320   1.661 -0.1200 -0.1290  0.0425
    1W        W55906   4.809   6.882   8.835  0.0324 -0.1584 -0.2241
    1W        W55907   7.768  13.884   1.170 -0.0357  0.0319  0.0717
    1W        W55908   2.417   0.719   6.431  0.1390 -0.0442  0.1753
    1W        W55909  18.609  17.035   1.127  0.4753  0.2411  0.0783
    1W        W55910  13.906  17.470   1.833 -0.0529  0.2039 -0.0443
    1W        W55911  12.097  21.455   7.289  0.1698  0.1318  0.3913
    1W        W55912  17.750   1.837   1.720 -0.0145  0.1507 -0.1485
    1W        W55913  18.567  24.445   2.164 -0.0241 -0.0530  0.0950
    1W        W55914   9.527  24.525   8.998  0.0510  0.0341 -0.2649
    1W        W55915   0.744  23.346   9.482 -0.0850 -0.0266 -0.1367
    1W        W55916  27.409  22.688   2.590  0.3739  0.0697 -0.0559
    1W        W55917  11.439  18.813   9.245  0.1886  0.3868  0.1683
    1W        W55918  18.952   2.543   7.356  0.1912 -0.0191  0.1438
    1W        W55919  21.492   9.947   7.550  0.0045  0.2211 -0.0090
    1W        W55920   1.855   9.529   1.965  0.0870  0.0439  0.1151
    1W        W55921  16.687   5.591   0.500 -0.0680  0.1083  0.0946
    1W        W55922  24.935   6.279   9.686 -0.1443  0.1083  0.2336
    1W        W55923   5.002  13.523   1.565 -0.0960  0.0799  0.1999
    1W        W55924   5.339  20.275   7.291  0.1996  0.0635  0.0430
    1W        W55925   8.365  11.375   8.519  0.0112  0.2111  0.3520
    1W        W55926  22.099   1.182   1.749  0.1619  0.2022 -0.0917
    1W        W55927   6.875   0.773   2.750 -0.4479 -0.1770 -0.1848
    1W        W55928  25.459  16.108   7.325  0.0461 -0.3488 -0.1845
    1W        W55929  27.080  29.144   7.483  0.0621  0.1332  0.3148
    1W        W55930  24.856   4.209   0.946  0.1449  0.0620 -0.2531
    1W        W55931   1.055  17.419   9.346 -0.0428 -0.0468  0.1475
    1W        W55932   9.722  11.544   2.897  0.1463  0.0358 -0.3100
    1W        W55933  27.537  19.404   1.561 -0.0149 -0.2791  0.1233
    1W        W55934  21.965  25.778   7.534 -0.0179  0.1529 -0.0859
    1W        W55935   7.782  12.156   1.989 -0.0592  0.0702  0.1415
    1W        W55936   4.681   5.828   3.230 -0.0169 -0.3454  0.0377
    1W        W55937   9.614   1.570   8.984 -0.0664  0.1987 -0.1809
    1W        W55938   2.726  12.217   9.438 -0.3116  0.0392 -0.1270
    1W        W55939  28.710  13.226   6.343 -0.1780  0.1257  0.1042
    1W        W55940  12.990   0.716   3.501 -0.2303  0.4569  0.2381
    1W        W55941  25.543  11.995   8.740  0.2629  0.1169 -0.0302
    1W        W55942  14.776  28.878   7.610 -0.0440  0.1005 -0.0634
    1W        W55943   1.433  19.264   9.002 -0.2397 -0.1645 -0.1005
    1W        W55944  11.476  18.205   2.112  0.1192 -0.0392  0.0866
    1W        W55945  25.977  18.916   8.438  0.1280 -0.0281  0.4300
    1W        W55946  14.675  28.741   0.444 -0.0601 -0.1107  0.1294
    1W        W55947  28.913  24.629   6.757 -0.2157  0.0902 -0.1577
    1W        W55948   7.366  23.482   8.532  0.1114 -0.0721 -0.3321
    1W        W55949  28.432  13.773   1.640 -0.0527 -0.1160  0.1139
    1W        W55950  28.149  15.193   6.085  0.0247  0.1722  0.0334
    1W        W55951  13.489  14.768   8.003 -0.0902  0.0762 -0.3148
    1W        W55952   6.621  17.851   6.438  0.0957 -0.0172 -0.0281
    1W        W55953  17.196  12.283   7.999  0.0990 -0.1539 -0.0281
    1W        W55954  11.432  11.859   9.317  0.1536  0.1636  0.2131
    1W        W55955  25.684  25.937   1.730  0.0804  0.1013  0.1894
    1W        W55956  25.092  12.737   0.537  0.0448 -0.2545 -0.2614
    1W        W55957  17.454   1.096   2.675 -0.3200  0.0553 -0.1396
    1W        W55958   0.812   2.420   1.408  0.1385 -0.0741 -0.3326
    1W        W55959  28.365  16.870   2.182 -0.0520  0.1145  0.1294
    1W        W55960  22.215  10.323   6.890  0.1505 -0.0363 -0.0520
    1W        W55961  22.716   2.202   9.681 -0.0068 -0.0047  0.0399
    1W        W55962   2.086   2.327   1.437 -0.4237  0.0209 -0.2576
    1W        W55963  21.985   2.863   6.477 -0.1959  0.1359  0.0337
    1W        W55964  25.385  22.578   0.126  0.1704 -0.3994  0.2172
    1W        W55965  10.371  11.837   0.487  0.0567  0.0118  0.1404
    1W        W55966  22.810  17.033   1.138  0.0778  0.0844 -0.3027
    1W        W55967  11.437   2.069   9.322  0.0632  0.1994 -0.0780
    1W        W55968   1.624  28.229   1.206 -0.0726 -0.1268 -0.0748
    1W        W55969  10.476  20.397   7.877 -0.1283  0.3947 -0.1183
    1W        W55970   6.549  25.859   8.157  0.1856 -0.0101  0.0967
    1W        W55971   0.273  14.002   1.148 -0.0098  0.0461 -0.1396
    1W        W55972  12.680  15.405   1.970 -0.1418 -0.1245  0.0523
    1W        W55973  23.992  22.915   1.704  0.0284 -0.1964  0.0209
    1W        W55974   4.503   3.575   8.910 -0.1772  0.1715 -0.0030
    1W        W55975   4.573  14.295   8.553 -0.1363 -0.2171  0.0511
    1W        W55976  10.883  12.662   1.876 -0.0765  0.2518 -0.1389
    1W        W55977   0.394  15.044   7.326  0.0001 -0.0333  0.1753
    1W        W55978   5.437  13.422   0.979 -0.0281  0.2273 -0.0771
    1W        W55979  25.063  19.745   7.433 -0.0087  0.1185 -0.0160
    1W        W55980  21.826  27.194   7.871 -0.2884  0.2439 -0.2411
    1W        W55981  18.526  28.588   9.362  0.1296  0.1489  0.0030
    1W        W55982  26.950  27.297   5.985  0.1808 -0.0589  0.0768
    1W        W55983  19.114  20.087   8.979 -0.0809 -0.2330  0.0580
    1W        W55984  24.299  15.838   0.906 -0.1231  0.0536 -0.2415
    1W        W55985  20.521  23.700   8.578  0.2964  0.2360  0.0855
    1W        W55986  27.238  12.023   8.381  0.1506 -0.1137  0.0561
    1W        W55987  29.294   3.256   2.480  0.2659  0.2008  0.0076
    1W        W55988   9.858  19.303   2.443 -0.2625 -0.2674 -0.1429
    1W        W55989  20.181  22.761   9.430  0.0708  0.1972 -0.1375
    1W        W55990   4.582   7.006   8.331  0.2153  0.1253  0.0040
    1W        W55991  17.760   7.982   7.419  0.0072  0.0215  0.2147
    1W        W55992   9.111   9.138   7.903  0.1996 -0.3861 -0.0312
    1W        W55993  20.454  15.013   9.194 -0.2407  0.0407  0.4300
    1W        W55994  18.215   0.849   1.137 -0.1517 -0.0816 -0.0422
    1W        W55995  13.721  19.758   0.596 -0.1548  0.2253 -0.0271
    1W        W55996  24.185  21.782   7.334  0.3061 -0.0300 -0.0455
    1W        W55997  25.938  24.034   6.143 -0.0301 -0.0949 -0.0809
    1W        W55998   2.622  25.716   8.425  0.1002 -0.0685 -0.2472
    1W        W55999   5.236  26.935   7.430 -0.0100 -0.2442  0.0689
    1W        W56000   9.944   3.003   9.362 -0.0381  0.0744 -0.1224
    1W        W56001  28.262  13.033   9.189 -0.1738  0.1098 -0.0333
    1W        W56002   2.782  21.236   2.241 -0.1109  0.4836 -0.1882
    1W        W56003  23.867  21.004   1.321 -0.3303  0.0594 -0.1899
    1W        W56004  20.714   8.170   0.270 -0.1461 -0.1260  0.0153
    1W        W56005  13.298  24.000   8.733  0.2630 -0.3085  0.0053
    1W        W56006  23.180  27.113   2.293 -0.2987  0.1385 -0.0443
    1W        W56007   1.302  10.189   8.762  0.2031 -0.0367 -0.2814
    1W        W56008  23.940  18.566   0.941 -0.0245  0.0017  0.3040
    1W        W56009   9.771  29.181   1.783 -0.0661 -0.0396 -0.0899
    1W        W56010   3.218  16.251   9.398  0.1555  0.0678 -0.1660
    1W        W56011  20.409  10.721   2.904 -0.1484  0.0336 -0.0538
    1W        W56012  14.069  12.181   1.760  0.2170 -0.1876  0.0328
    1W        W56013  12.643   6.697   1.005 -0.2502  0.1845  0.2183
    1W        W56014  17.258  24.064   3.154 -0.0835 -0.0808 -0.0454
    1W        W56015  12.167  27.697   7.608  0.1203  0.0065  0.0803
    1W        W56016  17.940  15.974   2.234  0.2827  0.0794  0.0622
    1W        W56017  20.766  24.179   9.233  0.2736 -0.0229 -0.1650
    1W        W56018  10.271  14.262   0.631 -0.0024  0.1004 -0.0055
    1W        W56019  13.319  18.100   9.200  0.0490  0.3465  0.0002
    1W        W56020  26.068  26.933   2.120 -0.1323  0.1734  0.0109
    1W        W56021  20.470   0.556   1.767 -0.0854  0.0902  0.4344
    1W        W56022  26.997  20.576   0.450  0.1317  0.1514 -0.1683
    1W        W56023  17.714  18.472   1.145 -0.3765 -0.0336 -0.0013
    1W        W56024   7.210  19.852   7.482  0.1855  0.0160 -0.1529
    1W        W56025   6.861   8.182   0.095 -0.1496 -0.3012  0.1413
    1W        W56026  22.450  18.720   6.867  0.0851  0.0254  0.1116
    1W        W56027  19.123  25.402   8.153 -0.0648  0.0676 -0.0440
    1W        W56028  22.083  26.613   1.576  0.1454  0.2003 -0.0304
    1W        W56029  10.550  14.249   1.981 -0.3043  0.1690 -0.0260
    1W        W56030  29.361  27.059   8.008  0.0627 -0.2502 -0.0177
    1W        W56031  25.862  26.449   2.549 -0.0286  0.1588 -0.2905
    1W        W56032  25.592   8.511   7.092  0.0066 -0.3266  0.1392
    1W        W56033  23.342  22.237   9.458 -0.2774  0.3916  0.0311
    1W        W56034  16.483  11.193   8.299  0.2695  0.3307  0.0781
    1W        W56035  28.788  13.242   7.865  0.2495 -0.0567 -0.0958
    1W        W56036  27.751   1.836   1.881 -0.2159 -0.0251  0.0937
    1W        W56037  14.881  20.486   2.108  0.1070  0.3765 -0.1068
    1W        W56038  14.014  27.126   3.198  0.1067  0.3368  0.2269
    1W        W56039  16.013  13.737   2.795  0.0876 -0.1379 -0.0632
    1W        W56040   5.878  24.735   2.470 -0.1015  0.0105 -0.0390
    1W        W56041  26.356  28.244   2.967 -0.0370 -0.0247 -0.2536
    1W        W56042  26.856  11.366   8.692  0.1819 -0.0519 -0.1453
    1W        W56043   9.167  29.139   1.684 -0.2079  0.0131  0.1825
    1W        W56044  28.378   2.236   0.255 -0.0948  0.2282  0.0691
    1W        W56045   3.448   8.018   7.002  0.0690 -0.0467 -0.0349
    1W        W56046  16.775  28.001   8.729 -0.0367 -0.1572  0.1478
    1W        W56047  11.975  26.679   8.554 -0.2127 -0.1060  0.2153
    1W        W56048  21.614   8.473   1.157  0.0962 -0.0420 -0.0246
    1W        W56049  16.080  24.882   2.738  0.1742 -0.0112 -0.0035
    1W        W56050  29.180  10.479   2.286  0.0329  0.1336 -0.0306
    1W        W56051   6.541  10.185   2.134 -0.0999  0.0466 -0.1910
    1W        W56052  25.643  26.689   7.821 -0.1425  0.1030 -0.0425
    1W        W56053  22.519   8.485   7.388 -0.2844  0.1766  0.4068
    1W        W56054  11.867  24.391   2.021 -0.2401 -0.1446 -0.0103
    1W        W56055  18.761  20.844   8.151 -0.1300  0.0050  0.0149
    1W        W56056   2.676  12.694   9.190  0.1269  0.3038  0.0787
    1W        W56057  26.109  24.265   7.832 -0.1582 -0.0434 -0.2447
    1W        W56058  16.514  19.785   1.174  0.1946  0.2539  0.0183
    1W        W56059  19.054  17.769   1.056 -0.1494 -0.1205  0.0753
    1W        W56060  12.634  20.833   7.720 -0.1331 -0.1549  0.1104
    1W        W56061   7.933  23.990   7.717  0.0038  0.5262 -0.0013
    1W        W56062   7.161  19.159   1.746 -0.0828  0.1254  0.0240
    1W        W56063  12.468  10.251   2.124 -0.0947 -0.2876 -0.0653
    1W        W56064   4.665  27.349   9.679 -0.0586 -0.1623  0.1162
    1W        W56065  22.161   6.477   0.964 -0.4410 -0.2376  0.1411
    1W        W56066  10.871   5.328   0.103 -0.0218 -0.1662  0.2274
    1W        W56067  25.107   0.393   6.776  0.2564  0.2089 -0.1954
    1W        W56068   5.311  24.009   6.537 -0.3654 -0.0236 -0.2153
    1W        W56069  17.145  18.819   2.714 -0.0668 -0.0202  0.0729
    1W        W56070   4.154   6.767   7.455  0.3057 -0.2333  0.2251
    1W        W56071  15.822  17.215   0.540 -0.2559  0.2252 -0.2510
    1W        W56072   8.031  19.737   8.697  0.2488 -0.0713  0.0250
    1W        W56073  21.224   2.774   7.376 -0.1096 -0.0666 -0.5337
    1W        W56074  26.218  26.175   1.431 -0.0263  0.1018 -0.0571
    1W        W56075   5.997  24.522   1.572 -0.2191  0.0269 -0.0770
    1W        W56076  14.842  10.601   2.070 -0.2125  0.3613 -0.1415
    1W        W56077   4.461  17.871   7.843 -0.1559  0.0977  0.0347
    1W        W56078   3.442   0.928   8.266  0.1905 -0.2648  0.2324
    1W        W56079  13.260   0.211   8.113 -0.1652  0.0716 -0.4681
    1W        W56080   7.830  23.873   2.575  0.2028  0.0528 -0.1381
    1W        W56081  20.345  27.544   2.370 -0.1297  0.2405 -0.0411
    1W        W56082  11.286  26.958   1.796  0.1748 -0.0649 -0.0960
    1W        W56083  29.118  28.972   2.936 -0.1527 -0.1160  0.1336
    1W        W56084   4.747  25.802   7.082  0.0228 -0.0903  0.0228
    1W        W56085   9.429   0.379   8.383  0.0820 -0.0350  0.1019
    1W        W56086   3.056  27.435   7.915  0.0155  0.2573  0.1153
    1W        W56087  18.828  12.208   7.577  0.0624  0.1159 -0.0137
    1W        W56088  15.900   8.396   9.515  0.1137 -0.1660 -0.1418
    1W        W56089   4.628   5.554   6.867  0.3087 -0.3275 -0.1674
    1W        W56090   8.417  18.219   0.405  0.3012  0.1487 -0.3052
    1W        W56091  19.848   8.401   1.737 -0.2422  0.2766  0.1528
    1W        W56092  25.391   9.152   9.330  0.1299 -0.0995  0.1395
    1W        W56093  23.147  16.501   2.006 -0.2322 -0.1186  0.1189
    1W        W56094  13.947  26.617   3.187  0.1429 -0.0563  0.0420
    1W        W56095  26.277   0.309   2.087 -0.1354 -0.4956 -0.2994
    1W        W56096  20.902  16.085   1.055 -0.1612 -0.0371 -0.0643
    1W        W56097  18.016   6.629   3.304 -0.3208 -0.1615  0.4439
    1W        W56098   2.098  14.191   1.896  0.0612 -0.1515 -0.0247
    1W        W56099  28.902  19.418   6.952 -0.0633 -0.0346 -0.3680
    1W        W56100  15.943   6.003   0.073 -0.3698 -0.1019 -0.1049
    1W        W56101  14.343  12.192   2.259  0.0121  0.0901 -0.0322
    1W        W56102  19.179  24.745   3.271 -0.3516 -0.1211 -0.0787
    1W        W56103   1.492   5.185   8.787  0.0880  0.2181 -0.1488
    1W        W56104   5.794  28.069   2.894  0.1425  0.0702 -0.1165
    1W        W56105   5.278   0.928   2.965 -0.3259 -0.2024 -0.0574
    1W        W56106  10.143  12.392   7.856  0.1221  0.1524  0.0695
    1W        W56107  26.046  13.969   9.581  0.0224  0.2113 -0.2701
    1W        W56108  10.804   9.520   8.281 -0.1643 -0.1299  0.1470
    1W        W56109   8.069   7.117   2.966  0.0139 -0.0411 -0.0652
    1W        W56110   7.729   6.078   2.778 -0.2237 -0.1581 -0.3621
    1W        W56111  14.978  13.649   8.143 -0.2164 -0.0780  0.0513
    1W        W56112  12.111  24.010   1.172  0.1205 -0.2054 -0.0865
    1W        W56113  14.776  10.598   8.080 -0.0996 -0.1057  0.2810
    1W        W56114  29.077  11.063   5.834 -0.2258 -0.0996  0.1645
    1W        W56115  13.670   1.186   0.543 -0.0560  0.0894  0.3363
    1W        W56116   6.251  23.495   0.544 -0.2640 -0.2638 -0.2284
    1W        W56117  12.628  19.674   8.011  0.0932  0.1509  0.0028
    1W        W56118   1.224   3.839   9.069  0.0983 -0.1047 -0.1683
    1W        W56119  10.547  22.771   8.214 -0.0625 -0.2018  0.0271
    1W        W56120  15.307  28.582   9.258  0.1596  0.2190  0.2896
    1W        W56121  22.076  10.357   8.134 -0.0954  0.0985 -0.1967
    1W        W56122  23.364  11.425   2.385 -0.1554  0.2183  0.0994
    1W        W56123  12.275   5.037   1.459  0.2461  0.1776  0.1474
    1W        W56124   8.844  12.608   1.406 -0.1662  0.1616  0.3569
    1W        W56125  20.719  16.314   1.710  0.0512  0.1273  0.2124
    1W        W56126   7.784   5.974   7.011 -0.4406  0.0350  0.4996
    1W        W56127   6.072  28.929   2.066 -0.0644  0.0307  0.1591
    1W        W56128   1.347   6.429   8.183  0.0577 -0.0781  0.1461
    1W        W56129  25.338  12.903   8.826 -0.1990 -0.2118  0.0201
    1W        W56130   5.147   0.640   3.400  0.1900 -0.2640 -0.0745
    1W        W56131   7.034   9.316   2.836 -0.2250  0.1244 -0.1774
    1W        W56132  15.657   7.289   2.677  0.0786 -0.0639  0.5029
    1W        W56133  24.648   2.514   8.150  0.3619  0.0731  0.1879
    1W        W56134  23.507  29.022   2.203 -0.2613 -0.2052  0.2433
    1W        W56135   6.478   6.779   7.984 -0.0860 -0.0781  0.0595
    1W        W56136  24.633   1.807   0.874  0.2586 -0.0230  0.0161
    1W        W56137   0.568  18.771   6.984  0.0130  0.1810 -0.2222
    1W        W56138  16.819  15.946   1.767  0.2523 -0.1269  0.0741
    1W        W56139  13.556  15.899   8.733 -0.2486  0.1475 -0.0407
    1W        W56140   4.665  19.772   6.403  0.3636 -0.1782  0.2913
    1W        W56141   7.068  20.011   6.859 -0.0517 -0.0811  0.0718
    1W        W56142  19.169  15.090   6.988 -0.2449 -0.1186  0.1756
    1W        W56143  12.812  11.404   2.643  0.1090 -0.1861 -0.0989
    1W        W56144  21.472  28.074   8.908  0.2023  0.2751 -0.0631
    1W        W56145  20.852  28.846   6.134  0.2158 -0.2067  0.1178
    1W        W56146  18.432   0.236   8.799 -0.1705  0.1255  0.1129
    1W        W56147  27.675  17.409   8.964  0.0576 -0.1032  0.2675
    1W        W56148  16.660  18.081   1.212 -0.0089 -0.1092  0.0250
    1W        W56149   0.118   2.818   7.827  0.1618  0.0322 -0.3098
    1W        W56150  19.923  14.247   8.314  0.1548  0.0555  0.2184
    1W        W56151   0.724  17.368   6.786 -0.1222  0.1441  0.2395
    1W        W56152   0.083  16.997   8.497 -0.0477  0.0422 -0.3322
    1W        W56153  22.820   5.977   7.667 -0.0053 -0.0333  0.1268
    1W        W56154  13.837   7.311   0.076  0.0200  0.0721 -0.2537
    1W        W56155   1.565  20.330   8.758  0.0819  0.0027  0.0423
    1W        W56156  24.464   5.077   7.235 -0.1241 -0.0525  0.2979
    1W        W56157  21.205  19.153   1.119  0.0626 -0.0514 -0.1795
    1W        W56158  26.613  24.842   3.485  0.1833  0.1551  0.0853
    1W        W56159  21.636  18.707   8.221  0.2935  0.1368  0.2692
    1W        W56160  21.218  20.391   1.989  0.1981  0.0808 -0.0711
    1W        W56161   1.202  24.030   0.634  0.3417 -0.2605 -0.1142
    1W        W56162  26.772  14.644   9.538  0.2367  0.2651 -0.1678
    1W        W56163  22.280   2.460   6.568 -0.1939 -0.0529 -0.1715
    1W        W56164   2.912  15.105   6.507 -0.1986 -0.0539 -0.0747
    1W        W56165  12.207  17.548   0.850  0.0452 -0.1669 -0.0248
    1W        W56166   5.468   4.604   1.055  0.0296  0.3192  0.1087
    1W        W56167   4.895  12.293   2.193  0.4085 -0.2180  0.3505
    1W        W56168  17.089  23.902   1.323  0.0578 -0.4757 -0.3646
    1W        W56169  28.503  27.029   1.852 -0.0497 -0.0458 -0.0292
    1W        W56170  28.547  13.759   7.598 -0.0314 -0.0796 -0.2657
    1W        W56171   7.064   1.481   9.296  0.4375  0.0952  0.1769
    1W        W56172   2.737  24.483   6.390 -0.0748  0.1951 -0.0271
    1W        W56173   8.937  14.461   7.670 -0.1721 -0.1150  0.2522
    1W        W56174  24.990  25.315   6.923 -0.1647  0.1881  0.2612
    1W        W56175  24.555  10.629   1.213 -0.0787 -0.2105  0.1311
    1W        W56176  16.831  10.594   0.804 -0.0394  0.0973 -0.1041
    1W        W56177   8.761  12.087   0.895  0.1190 -0.1303 -0.1788
    1W        W56178   1.192  11.149   6.833 -0.2748  0.0479  0.0616
    1W        W56179   9.043  11.864   8.028  0.0290 -0.1922  0.2103
    1W        W56180   6.165  26.321   9.605 -0.2650  0.0039  0.3022
    1W        W56181   9.738  23.645   8.319 -0.1139  0.1603 -0.0029
    1W        W56182  10.820   4.008   2.944 -0.0160  0.2630 -0.2005
    1W        W56183   1.110  15.706   1.573 -0.1269  0.2609  0.1251
    1W        W56184  18.651   6.904   9.631  0.4003  0.0246 -0.1927
    1W        W56185   6.677  12.192   8.076 -0.0937 -0.1070  0.2968
    1W        W56186  19.473  15.505   0.981  0.4876  0.3488  0.2292
    1W        W56187  11.129  21.535   1.236  0.0841  0.3568 -0.1236
    1W        W56188   1.824  17.711   1.185  0.2359  0.0703  0.1508
    1W        W56189  15.629   9.293   8.843  0.1240 -0.0553  0.1459
    1W        W56190  16.956  15.387   1.001  0.2269  0.0840 -0.0244
    1W        W56191   9.310   7.505   9.605 -0.0019 -0.0726  0.3140
    1W        W56192   5.456  16.837   8.286  0.0828 -0.2751  0.1831
    1W        W56193  22.910   3.020   7.540 -0.1588 -0.1546  0.0242
    1W        W56194   2.004  19.688   1.518 -0.2019  0.3078 -0.0796
    1W        W56195   0.883  19.651   5.777 -0.0228 -0.0903 -0.3472
    1W        W56196  19.242  22.459   7.096  0.0841  0.0878  0.2458
    1W        W56197  17.325  13.754   0.150 -0.0282  0.0909  0.2655
    1W        W56198  28.827   6.544   0.030 -0.2688 -0.0250  0.2454
    1W        W56199  17.927  14.952   1.726 -0.1911 -0.3296 -0.2033
    1W        W56200  10.333  14.706   9.068 -0.0195 -0.2611 -0.1671
    1W        W56201  22.063  14.966   1.477 -0.2707  0.3556  0.2897
    1W        W56202   8.667  22.875   0.057  0.0836 -0.3035  0.0316
    1W        W56203  25.720  21.988   7.242 -0.0446  0.1434  0.1579
    1W        W56204   0.236  15.058   8.000  0.0720  0.0787 -0.0767
    1W        W56205   5.122  10.008   8.481  0.2377  0.0161 -0.1422
    1W        W56206  16.634   8.100   1.042 -0.1772 -0.1062  0.3366
    1W        W56207  16.323   8.771   1.603  0.0307 -0.3361  0.0885
    1W        W56208   3.011  25.914   0.544  0.2282  0.0781 -0.1483
    1W        W56209  17.296   6.539   3.460 -0.3325  0.0194 -0.1673
    1W        W56210  16.086  15.609   7.542  0.1147 -0.1004  0.1611
    1W        W56211  20.304   1.731   8.293 -0.0867 -0.1691 -0.0897
    1W        W56212  11.790   6.756   1.726  0.1648 -0.2344  0.2927
    1W        W56213  17.886  11.236   0.070  0.0060  0.0817 -0.1665
    1W        W56214  16.912   6.710   2.926  0.4894 -0.0021 -0.1706
    1W        W56215  24.032  14.421   8.011  0.1749  0.3855 -0.2394
    1W        W56216   2.359  12.626   8.238  0.1919  0.3396 -0.3030
    1W        W56217  14.593  19.974   0.590 -0.3108 -0.0031  0.1583
    1W        W56218   7.450  12.457   1.523  0.0113  0.0371 -0.1273
    1W        W56219  27.421   1.811   3.609  0.1622  0.4263  0.0540
    1W        W56220   7.261  17.977   2.216  0.1929  0.0844 -0.1169
    1W        W56221  11.846   9.265   2.303  0.1701 -0.0143  0.0430
    1W        W56222  20.102  22.959   0.177  0.0077  0.0852  0.1624
    1W        W56223  28.699   2.210   9.453 -0.0983 -0.1353 -0.0290
    1W        W56224  17.694   7.832   9.376  0.1152 -0.0369 -0.1952
    1W        W56225  28.818   7.081   1.857 -0.1567 -0.1140 -0.2491
    1W        W56226  17.027  29.305   2.816  0.0349 -0.0788 -0.0923
    1W        W56227  24.196   6.666   5.485 -0.2267  0.1162 -0.0337
    1W        W56228  16.404   7.815   2.140 -0.0710 -0.1729 -0.1162
    1W        W56229  17.815  28.948   9.320 -0.0412 -0.0394  0.3287
    1W        W56230  15.951  26.465   2.147 -0.2840 -0.2411  0.2407
    1W        W56231  14.428  25.563   8.973 -0.1543  0.0159 -0.0175
    1W        W56232  22.211  27.445   8.538 -0.1097 -0.0334  0.1496
    1W        W56233   8.186  22.222   8.679  0.4296 -0.0854 -0.1363
    1W        W56234  24.855   9.834   6.693  0.0279 -0.2751 -0.1586
    1W        W56235   0.640  15.284   7.704 -0.1858  0.0055 -0.1937
    1W        W56236  17.715   3.731   2.228 -0.0431 -0.0215  0.2531
    1W        W56237  12.908  20.207   6.991  0.2353  0.1807 -0.2216
    1W        W56238  19.110  20.668   1.661 -0.3134  0.0070  0.0246
    1W        W56239  16.036  13.878   9.304  0.0714 -0.0928 -0.0969
    1W        W56240  20.950  15.378   2.493 -0.1321  0.1110  0.1844
    1W        W56241  28.110  14.368   6.573  0.0806  0.3491 -0.1393
    1W        W56242  20.524   3.472   1.062  0.1716 -0.1977 -0.2769
    1W        W56243  20.167  18.354   0.283  0.1492  0.0974 -0.0202
    1W        W56244   0.173  11.619   9.502 -0.0468  0.1403 -0.0146
    1W        W56245  18.731  23.123   6.752  0.1509 -0.2026 -0.2486
    1W        W56246   8.093  27.553   0.747  0.0524 -0.0407 -0.1846
    1W        W56247   9.326   0.034   0.092  0.0360  0.0265 -0.1260
    1W        W56248  16.609  24.122   1.297 -0.0035 -0.0529 -0.1678
    1W        W56249   7.987  25.559   0.433 -0.0607  0.0349  0.0551
    1W        W56250  21.207  17.198   1.610 -0.1404  0.0009 -0.2891
    1W        W56251  14.145  26.646   7.842 -0.0710  0.0778 -0.0526
    1W        W56252  27.692  22.794   2.960  0.1414 -0.1146  0.0212
    1W        W56253  24.767  13.009   5.721 -0.1007  0.1265 -0.0341
    1W        W56254  18.419  11.147   0.501  0.0263  0.1253 -0.2778
    1W        W56255   7.628  29.114   9.167  0.2222 -0.0706 -0.3183
    1W        W56256   6.851  16.328   1.979 -0.1935 -0.1081  0.4112
    1W        W56257   6.213   9.093   1.429 -0.0463  0.2326 -0.1536
    1W        W56258  22.365  19.735   7.503  0.2521 -0.1906 -0.0571
    1W        W56259   0.537  28.311   7.859 -0.2955  0.1119  0.1754
    1W        W56260  20.536   9.609   2.077  0.0070  0.2714 -0.0892
    1W        W56261  11.829  13.962   2.430 -0.2196  0.1653  0.1528
    1W        W56262  22.924  10.107   8.764 -0.0981 -0.2428 -0.0561
    1W        W56263  25.068  14.128   9.399  0.1347  0.3197  0.1687
    1W        W56264  13.890  12.412   0.916 -0.3545  0.0999  0.0285
    1W        W56265  14.515  21.240   8.858 -0.0326 -0.1691 -0.1696
    1W        W56266  23.855  17.029   1.760  0.4185  0.3527  0.1206
    1W        W56267   7.835  15.316   0.256 -0.0598  0.1892  0.0433
    1W        W56268  16.081  15.670   9.176  0.1318 -0.0922 -0.0236
    1W        W56269   4.792  18.021   6.159 -0.2018 -0.1422  0.2262
    1W        W56270  25.044   1.840   0.556  0.0393 -0.0133 -0.1321
    1W        W56271  26.336   0.308   7.432  0.2290 -0.3295 -0.0695
    1W        W56272   9.287   5.025   3.194  0.2025  0.1263 -0.1540
    1W        W56273   2.185  21.185   9.442  0.1336  0.0841  0.0579
    1W        W56274  10.289   4.290   9.475 -0.1447 -0.2304  0.2591
    1W        W56275   8.043  20.201   0.918 -0.1090  0.1236  0.3179
    1W        W56276  11.459  24.646   1.861  0.1224 -0.0483  0.0629
    1W        W56277  25.901  14.026   1.641 -0.0817 -0.1812 -0.2624
    1W        W56278  18.648  22.090   0.170  0.0935 -0.0772  0.1387
    1W        W56279  13.931  15.355   7.266  0.2094 -0.1371  0.2873
    1W        W56280  11.019  10.564   2.708  0.1509 -0.3616  0.0748
    1W        W56281  20.908  15.918   7.604 -0.2318  0.2817 -0.0293
    1W        W56282   4.200  21.875   1.518  0.1657 -0.2057  0.2746
    1W        W56283   2.348   1.007   6.861 -0.2469 -0.0082 -0.1708
    1W        W56284  11.957  13.872   0.119 -0.1926  0.1643 -0.0499
    1W        W56285   6.113  15.622   0.603  0.0418 -0.0597 -0.3186
    1W        W56286   0.288   5.958   6.484 -0.2578  0.1857 -0.1703
    1W        W56287  29.359  12.469   7.241 -0.1651 -0.0193 -0.1049
    1W        W56288  21.358  24.488   2.706 -0.1042  0.0097 -0.0298
    1W        W56289   3.414  23.894   8.030  0.0035  0.4809  0.1949
    1W        W56290  11.701  26.018   6.779  0.1346 -0.0568  0.1538
    1W        W56291  21.580  19.509   9.330 -0.0008 -0.0270  0.4625
    1W        W56292  14.304   2.260   8.689  0.1138 -0.0433 -0.2581
    1W        W56293  25.855  10.902   8.353  0.1474  0.2696  0.0943
    1W        W56294  27.167  23.207   6.980  0.2024 -0.0081 -0.3218
    1W        W56295   7.607  22.595   8.652  0.0570  0.0511 -0.0577
    1W        W56296   7.241  15.293   0.198 -0.0795 -0.1100 -0.0390
    1W        W56297  25.838  26.288   2.057  0.1900  0.2335  0.2642
    1W        W56298  27.780  14.148   7.889 -0.1244 -0.1119  0.0324
    1W        W56299  16.927  27.996   9.267  0.0184 -0.0288  0.1118
    1W        W56300  19.833   1.473   7.269  0.0790  0.1133 -0.2270
    1W        W56301  28.952   3.363   1.213 -0.0449 -0.2291 -0.1150
    1W        W56302  29.222   6.562   9.281 -0.3266 -0.0706  0.2586
    1W        W56303   8.270   8.708   8.220  0.3720 -0.0350 -0.0254
    1W        W56304   9.876   3.804   0.188 -0.1384 -0.0513  0.3741
    1W        W56305  20.878   1.592   8.497  0.0502 -0.2273 -0.0478
    1W        W56306   1.602  14.716   6.502 -0.2879 -0.2281  0.0871
    1W        W56307   7.880  25.802   0.007  0.1251 -0.0614  0.0849
    1W        W56308   6.856  20.217   0.332 -0.1341 -0.1074 -0.1511
    1W        W56309  16.996  16.051   1.311 -0.0603 -0.0168 -0.2141
    1W        W56310  23.202  27.088   2.790  0.1284  0.1685  0.0461
    1W        W56311  28.760  29.332   0.218  0.0086  0.0801  0.1744
    1W        W56312  20.661  18.861   2.624  0.0410 -0.2509 -0.3811
    1W        W56313   8.974   2.412   1.259  0.1344  0.0401 -0.1766
    1W        W56314  18.067  16.087   0.538 -0.1127 -0.0434 -0.2008
    1W        W56315  19.691   3.657   1.199  0.0306  0.1407 -0.1532
    1W        W56316  20.516  14.516   7.738 -0.0651 -0.0771 -0.2314
    1W        W56317   6.663  22.857   1.234  0.6088  0.1241 -0.1788
    1W        W56318  13.073   6.550   1.156 -0.0048 -0.3320 -0.2831
    1W        W56319  26.612   0.713   3.596 -0.1538  0.5156 -0.2460
    1W        W56320   2.551   3.799   7.608 -0.2412  0.0621  0.0852
    1W        W56321   1.654   5.445   2.528  0.1163  0.1493  0.0761
    1W        W56322   2.730   9.866   2.856  0.1407  0.0635  0.2780
    1W        W56323  29.339  25.684   7.767  0.0032 -0.0751 -0.3091
    1W        W56324  18.436  17.214   2.097 -0.2998 -0.0074  0.1215
    1W        W56325  23.466  17.060   6.232 -0.0040 -0.2273  0.1282
    1W        W56326  24.769   9.248   2.831 -0.0286 -0.0567  0.0344
    1W        W56327  12.872  19.527   0.856 -0.0738  0.1574 -0.1458
    1W        W56328  21.043  23.683   1.350  0.0045 -0.0036 -0.1762
    1W        W56329   4.205  26.286   8.172 -0.1890  0.0880 -0.2544
    1W        W56330   2.021  17.800   9.247  0.1970  0.0548 -0.1494
    1W        W56331   4.201   9.118   9.439  0.2413 -0.0026  0.0426
    1W        W56332   9.020   5.454   8.784  0.1610  0.2661 -0.3156
    1W        W56333   9.413  29.020   0.462  0.1450  0.0216  0.2558
    1W        W56334  11.443  22.357   2.082 -0.4060  0.0736 -0.0745
    1W        W56335   5.499   3.525   2.164  0.1379 -0.1266  0.1693
    1W        W56336  13.777   2.944   8.893  0.3108  0.1325  0.0928
    1W        W56337  22.433   2.946   7.814  0.1003  0.0252  0.0423
    1W        W56338   0.533  28.991   9.333 -0.0690 -0.0157 -0.0170
    1W        W56339  14.495  15.014   1.416  0.1083 -0.0695  0.0330
    1W        W56340  20.697  18.113   0.876  0.1456 -0.1452  0.2691
    1W        W56341   6.341  22.224   2.422 -0.4630  0.4345 -0.0714
    1W        W56342  21.889   9.390   1.056  0.0993  0.0781  0.1103
    1W        W56343   1.734  12.323   0.675  0.1914 -0.2662  0.3961
    1W        W56344  17.438   6.033   1.646  0.0843  0.3649  0.2783
    1W        W56345   2.761  21.324   6.864  0.0017 -0.1581  0.2268
    1W        W56346   8.375   5.246   0.009  0.1409  0.4579  0.0990
    1W        W56347  26.111   9.994   1.675 -0.0686  0.1941  0.1765
    1W        W56348   0.281  27.282   7.616 -0.5888 -0.0992  0.2651
    1W        W56349  15.924   6.156   3.588  0.1847 -0.1047  0.1082
    1W        W56350   5.611   9.721   2.927  0.2247  0.0058 -0.2302
    1W        W56351  11.856   6.294   0.433  0.0151 -0.1748 -0.0478
    1W        W56352  25.174  17.345   8.112 -0.2208 -0.1054 -0.0685
    1W        W56353  13.293   2.651   1.953 -0.1103 -0.1314 -0.1059
    1W        W56354   2.169  28.813   2.805 -0.0404  0.0478  0.2109
    1W        W56355  26.360  21.311   8.869  0.1126  0.0017 -0.2715
    1W        W56356   7.513   0.081   2.412 -0.1568  0.0516 -0.1318
    1W        W56357   0.151  17.740   8.201  0.5047  0.1427 -0.1400
    1W        W56358   0.570  17.887   8.436 -0.0931 -0.0175  0.0984
    1W        W56359  15.958  14.233   1.457 -0.1143 -0.0767 -0.1048
    1W        W56360   4.211  10.746   2.256  0.0836 -0.0403  0.3130
    1W        W56361   0.335   6.995   6.794  0.0275 -0.2058 -0.2810
    1W        W56362  20.283  18.671   0.687 -0.3038 -0.2158  0.0916
    1W        W56363  22.535  16.658   1.337 -0.1892  0.1812  0.0027
    1W        W56364  20.855   2.721   2.467  0.0436  0.0125 -0.0675
    1W        W56365  15.566   2.428   7.116 -0.0566  0.0505 -0.2393
    1W        W56366   6.393  13.124   9.335 -0.0482  0.1360 -0.0878
    1W        W56367  14.184  19.191   7.772  0.2081 -0.1421 -0.1456
    1W        W56368  21.186   0.548   0.092  0.1882 -0.5904  0.3214
    1W        W56369   0.791  14.982   9.484  0.0484  0.0581 -0.1530
    1W        W56370  11.901  25.810   2.284  0.3236 -0.3666 -0.2743
    1W        W56371  13.829  11.697   1.642  0.1663 -0.2696 -0.1119
    1W        W56372  29.199  26.132   8.016 -0.2151  0.0691  0.3080
    1W        W56373   2.554  20.067   9.414  0.0355 -0.1374  0.3174
    1W        W56374   8.216  14.888   7.423  0.1074  0.3095  0.1583
    1W        W56375  13.388  10.102   2.454  0.0762 -0.0209  0.4500
    1W        W56376  24.147  15.774   8.538 -0.1983  0.0408  0.2443
    1W        W56377  18.894  12.420   9.101  0.0864  0.3335  0.0054
    1W        W56378  26.069  25.334   1.748  0.1853 -0.1276  0.1937
    1W        W56379  25.501  23.239   0.607 -0.2755  0.2053 -0.0269
    1W        W56380   7.956  21.308   8.867  0.2181 -0.3074 -0.2924
    1W        W56381  22.469   0.520   2.333 -0.1927  0.0719  0.0021
    1W        W56382  28.866   7.041   0.157 -0.1819 -0.0507  0.0346
    1W        W56383  15.517  15.131   1.716  0.0257  0.0551 -0.3382
    1W        W56384  19.398   2.058   8.882  0.4457 -0.3884 -0.2917
    1W        W56385  10.994   2.298   1.796 -0.1135  0.0832 -0.0073
    1W        W56386  17.385  13.454   7.508  0.2874  0.2378 -0.0138
    1W        W56387   0.729  26.236   7.988 -0.0705 -0.1664 -0.3506
    1W        W56388  11.787  24.154   7.704 -0.2652 -0.0983  0.3888
    1W        W56389  17.503  26.320   0.702  0.2367  0.0937  0.1048
    1W        W56390  25.334  18.045   7.189  0.3286  0.0270 -0.0956
    1W        W56391  20.945  23.054   7.004  0.0100  0.1808 -0.0602
    1W        W56392  12.336  10.286   0.216 -0.0657 -0.1758  0.1372
    1W        W56393  27.984  10.725   0.179 -0.0362  0.0945  0.0715
    1W        W56394  23.876   3.275   8.971 -0.0846  0.2498  0.2943
    1W        W56395  11.388  28.410   2.441 -0.3036 -0.0223  0.0164
    1W        W56396  24.963  15.251   0.645  0.0310 -0.0758 -0.0378
    1W        W56397  28.485  21.302   6.708  0.3406 -0.2405 -0.1008
    1W        W56398  17.221   4.260   1.097  0.1074 -0.1066 -0.1651
    1W        W56399   6.509  16.930   8.359 -0.1024 -0.2026 -0.0730
    1W        W56400   4.701  19.663   9.002 -0.1267 -0.0884  0.1008
    1W        W56401  28.410  16.092   9.217 -0.1263 -0.0148 -0.1211
    1W        W56402  18.676   5.639   8.650  0.0057 -0.2821 -0.3022
    1W        W56403  10.188  23.479   0.715  0.2623  0.2821  0.0300
    1W        W56404  23.408  10.352   1.154  0.1373 -0.1008  0.0653
    1W        W56405  16.390  14.614   6.832  0.1441  0.0670  0.0025
    1W        W56406   8.463  26.918   3.523  0.0308 -0.3797  0.4710
    1W        W56407  22.326   1.230   2.999  0.1291 -0.4432 -0.0525
    1W        W56408  14.111  28.067   3.782 -0.0849  0.0505  0.4149
    1W        W56409  14.135   0.707   0.243  0.1179 -0.1050 -0.0191
    1W        W56410   7.443  28.446   8.290 -0.0839  0.0921  0.0580
    1W        W56411   2.620  17.875   2.274  0.1380 -0.1038  0.0271
    1W        W56412  25.383  20.875   6.770 -0.1181  0.0692 -0.2170
    1W        W56413   1.315  20.772   2.151  0.2327  0.0321  0.2186
    1W        W56414  14.057   5.281   3.140 -0.1024 -0.2809 -0.0017
    1W        W56415  15.511  16.418   7.519 -0.2400 -0.1225 -0.0147
    1W        W56416  22.709   4.391   7.510 -0.2335  0.0311  0.2938
    1W        W56417   6.099   3.094   7.900 -0.1850  0.0994 -0.3093
    1W        W56418   3.176  24.673   1.305 -0.1908  0.5448 -0.0657
    1W        W56419   1.817   6.961   7.331 -0.3521 -0.0451 -0.2396
    1W        W56420   9.201   9.195   6.527 -0.0705  0.1277 -0.2664
    1W        W56421   2.765  11.566   1.972  0.1884  0.4207 -0.0959
    1W        W56422  25.822   9.030   9.501  0.1952 -0.0203  0.0675
    1W        W56423  25.023  13.640   9.561  0.0397  0.0594  0.2589
    1W        W56424  27.956  18.524   1.931 -0.0059  0.3111  0.0457
    1W        W56425  25.646   7.234   1.998 -0.0817  0.0886 -0.1162
    1W        W56426   1.122  21.640   8.757 -0.2780  0.2364  0.0136
    1W        W56427  13.184   6.376   1.613  0.0216  0.3032 -0.5033
    1W        W56428  16.252  26.280   7.968 -0.0393  0.0907 -0.0168
    1W        W56429   5.610   8.220   0.422  0.0154  0.3185  0.2383
    1W        W56430  18.840  14.787   2.005 -0.2696 -0.0502 -0.1100
    1W        W56431  23.639   8.812   1.353  0.1699 -0.4093 -0.1411
    1W        W56432  23.929  18.101   9.575 -0.0085  0.0190 -0.3849
    1W        W56433  24.038  25.767   7.927  0.1922 -0.1213  0.0493
    1W        W56434   6.977  29.006   1.591 -0.0306  0.0907 -0.1955
    1W        W56435   3.401  26.035   7.813 -0.2870 -0.1517  0.3711
    1W        W56436  23.664  25.686   8.752 -0.0645 -0.1383 -0.0081
    1W        W56437  22.866  19.484   7.505  0.0169  0.0687 -0.1139
    1W        W56438  27.153   5.151   6.554 -0.0379  0.0253  0.1346
    1W        W56439  18.073  25.570   8.965  0.0042  0.3396 -0.2437
    1W        W56440  22.343  20.829   6.426  0.2910 -0.0080 -0.0873
    1W        W56441  18.806  25.330   2.689  0.0060 -0.0377 -0.0398
    1W        W56442  20.684  15.340   6.779 -0.1770 -0.1375 -0.1465
    1W        W56443   2.721   8.249   6.107 -0.0681  0.4153  0.1508
    1W        W56444  15.591  14.821   2.093  0.1400  0.2561  0.1079
    1W        W56445  17.113  25.251   7.180 -0.0119  0.1389  0.0763
    1W        W56446   3.703  23.850   2.390  0.2510  0.0779  0.0693
    1W        W56447  26.776  20.233   0.718  0.1958  0.1321  0.1462
    1W        W56448  25.330  12.257   6.553  0.4205 -0.1847  0.0816
    1W        W56449   4.181  11.931   8.237 -0.2284 -0.5692 -0.0530
    1W        W56450  28.623   5.677   9.591  0.3181  0.3425 -0.0585
    1W        W56451   4.817   3.330   9.324 -0.0843  0.3562  0.1903
    1W        W56452  22.826   6.069   8.218 -0.0486  0.2787 -0.1651
    1W        W56453  18.468   9.524   8.834  0.2748 -0.0093 -0.2162
    1W        W56454  25.977  17.074   1.732 -0.1811  0.1149  0.2722
    1W        W56455  25.900   6.272   9.173 -0.1595  0.1443 -0.2173
    1W        W56456   7.312  20.369   2.078 -0.3555 -0.1796  0.1631
    1W        W56457   9.670  21.246   8.768  0.0575  0.0027 -0.1003
    1W        W56458  17.573  22.600   1.872 -0.3438 -0.2240 -0.0368
    1W        W56459  10.154  12.036   1.426 -0.1397 -0.2168 -0.1100
    1W        W56460   2.253  22.622   2.174 -0.2700 -0.3422 -0.2395
    1W        W56461  24.429  10.268   2.720  0.1212 -0.0417  0.3692
    1W        W56462  24.924   0.487   9.543 -0.0413  0.1179 -0.0602
    1W        W56463  27.296   7.532   1.622  0.1647 -0.0659 -0.0780
    1W        W56464  13.678   0.625   1.652 -0.1043 -0.0781 -0.2612
    1W        W56465  25.762   0.234   8.931  0.0567 -0.1604  0.0265
    1W        W56466  10.363   7.870   3.238  0.1378 -0.1530 -0.2298
    1W        W56467   0.593  18.279   0.819 -0.0657 -0.1357  0.2342
    1W        W56468  25.325   0.338   6.337 -0.0414  0.3963 -0.1831
    1W        W56469  11.851   5.179   1.588  0.1206  0.0890 -0.0204
    1W        W56470   6.927   4.145   1.396 -0.0937 -0.1624 -0.0784
    1W        W56471   4.538   2.262   6.728  0.0765  0.0647  0.0181
    1W        W56472   7.038  22.257   7.701  0.2241 -0.0340 -0.1643
    1W        W56473   7.695  19.288   7.188 -0.0186 -0.1621  0.0918
    1W        W56474   7.521  10.202   1.691 -0.0288  0.1108 -0.0569
    1W        W56475   9.929  11.564   8.342  0.1247 -0.0201  0.0340
    1W        W56476  17.942   9.860   0.727 -0.3194  0.0735 -0.2015
    1W        W56477   1.812  19.307   1.172 -0.0184 -0.1392 -0.0407
    1W        W56478   5.330   2.693   1.767  0.1995 -0.0127 -0.0918
    1W        W56479   2.718  11.305   5.918  0.1257 -0.0720  0.1022
    1W        W56480   1.667   9.951   8.957 -0.0526  0.2442  0.3557
    1W        W56481  29.345  28.705   2.504  0.2180 -0.0117  0.1006
    1W        W56482   0.165  25.504   8.169  0.2527 -0.1309 -0.1472
    1W        W56483  24.470   0.986   7.953  0.1019 -0.1985 -0.0228
    1W        W56484  11.818   3.714   7.595  0.2421 -0.1702  0.1346
    1W        W56485  26.331   3.794   1.796  0.0748  0.1745  0.3125
    1W        W56486  18.540  20.734   0.280  0.0227 -0.0222 -0.0900
    1W        W56487  21.518  27.120   6.283 -0.1787 -0.0359 -0.3389
    1W        W56488  15.107  24.125   2.040  0.1168 -0.2095  0.0766
    1W        W56489   5.053   2.878   1.406 -0.2161  0.0704 -0.0897
    1W        W56490   2.201  21.783   8.568  0.0137  0.0286  0.0573
    1W        W56491  27.716  27.244   8.144  0.1803  0.0654 -0.0827
    1W        W56492   1.505  22.789   0.905  0.2960 -0.3615  0.0063
    1W        W56493  27.368  12.607   6.324 -0.0571 -0.1467 -0.0084
    1W        W56494  22.392  24.414   1.230  0.0034 -0.3095 -0.1322
    1W        W56495   4.755  11.383   9.270  0.1222  0.3817 -0.0607
    1W        W56496  16.267   8.723   3.272  0.2516 -0.0596 -0.2665
    1W        W56497  26.646   8.348   2.782 -0.2770 -0.0361  0.3255
    1W        W56498  26.317   2.680   7.335  0.1164  0.0691 -0.4939
    1W        W56499   4.104   4.751   6.736 -0.1375  0.0519 -0.0341
    1W        W56500  23.444  13.470   8.974  0.1673  0.1974  0.1524
    1W        W56501   0.192  10.329   6.580  0.0962  0.4018 -0.1354
    1W        W56502  20.560  10.566   7.587  0.1412 -0.1441  0.0606
    1W        W56503  20.371  23.388   0.808 -0.0560 -0.1043 -0.1016
    1W        W56504  17.893   6.799   2.653  0.0435 -0.0174  0.1604
    1W        W56505  10.233  25.626   1.272  0.3199  0.0227 -0.0205
    1W        W56506  18.158  10.818   9.607 -0.4509  0.0438 -0.3558
    1W        W56507   7.167  21.799   7.449  0.3708 -0.2453  0.0479
    1W        W56508  12.162  15.599   0.981  0.2379  0.2105  0.4138
    1W        W56509   1.739  22.064   9.635  0.0179 -0.1749  0.0617
    1W        W56510  22.704  17.859   9.474  0.0007 -0.1458 -0.0845
    1W        W56511   5.552  25.048   9.195  0.0965 -0.0209  0.1076
    1W        W56512   5.436   5.276   8.846 -0.2237  0.0312 -0.0366
    1W        W56513   5.017  19.867   6.021  0.4407  0.0754 -0.1465
    1W        W56514  21.075   8.152   7.427  0.0246  0.0315  0.1467
    1W        W56515   7.210  23.156   1.218 -0.2652  0.1148 -0.0726
    1W        W56516  17.991  13.482   2.284 -0.1545 -0.0841 -0.1722
    1W        W56517   3.177  21.875   1.833 -0.2359 -0.0449 -0.0703
    1W        W56518   0.028  27.841   8.225 -0.3931  0.0653  0.1178
    1W        W56519   6.420  19.280   8.109  0.0536 -0.3967 -0.1255
    1W        W56520   7.892  22.951   0.715  0.0293 -0.0825 -0.0063
    1W        W56521  11.092  26.071   3.326 -0.1306 -0.1037  0.1200
    1W        W56522  17.165   4.145   7.042 -0.0066  0.1960  0.0769
    1W        W56523   0.975  17.324   8.465  0.2688 -0.1599 -0.1637
    1W        W56524  19.436   9.116   7.769 -0.0072  0.0386  0.2705
    1W        W56525   1.546  19.779   1.198 -0.0636 -0.1561  0.2244
    1W        W56526  24.304  16.793   1.100  0.4215 -0.3495  0.0345
    1W        W56527   6.100  27.098   0.451 -0.3090 -0.0596 -0.0694
    1W        W56528   4.177  23.325   7.575  0.1890  0.0030  0.0594
    1W        W56529  28.434  17.197   0.403  0.1508 -0.0949 -0.0459
    1W        W56530   3.802   0.377   0.226  0.1026 -0.1402 -0.0400
    1W        W56531  23.737   1.466   6.750 -0.3978  0.1898 -0.0575
    1W        W56532  18.070  22.433   8.067  0.1009 -0.0309 -0.1619
    1W        W56533  20.003  21.736   0.159 -0.2809  0.2156  0.2717
    1W        W56534   0.353  25.793   6.348  0.1454 -0.1424 -0.0159
    1W        W56535  27.948  15.785   0.133 -0.1971 -0.0395  0.1868
    1W        W56536   9.985   5.108   0.373 -0.0058 -0.2257 -0.2647
    1W        W56537  11.607   9.073   0.485  0.1641 -0.0901 -0.1722
    1W        W56538   9.407  25.681   8.843 -0.2964 -0.4162  0.2032
    1W        W56539  12.964   0.909   2.356 -0.1358  0.2084  0.0432
    1W        W56540  16.310  28.061   2.880  0.1116 -0.1894  0.0139
    1W        W56541  21.474  22.074   2.053 -0.0599 -0.2440 -0.3773
    1W        W56542   2.293  20.818   5.618  0.1086 -0.0310  0.3556
    1W        W56543   6.911   4.152   7.664 -0.1765 -0.1600 -0.4005
    1W        W56544  28.220   4.121   7.553 -0.0165  0.2187 -0.2328
    1W        W56545  13.452  15.579   8.371 -0.3143 -0.1421  0.3273
    1W        W56546  29.265   6.112   7.245  0.0659  0.0095 -0.0123
    1W        W56547   9.956  26.130   1.384 -0.1865 -0.0532  0.2628
    1W        W56548   0.878  22.877   0.048  0.2062  0.0898  0.2468
    1W        W56549  21.097   9.809   0.912  0.0956 -0.0562  0.2809
    1W        W56550  28.520  26.987   0.528 -0.2143  0.1641  0.0717
    1W        W56551  20.597  20.717   7.691  0.0278  0.0744  0.0719
    1W        W56552   5.548  27.601   7.847  0.2148  0.0866  0.2033
    1W        W56553   4.537   3.045   1.680  0.1229  0.0821  0.0067
    1W        W56554   4.115   7.416   9.660  0.1432  0.3152  0.0683
    1W        W56555  17.100  11.651   7.130 -0.1538  0.1630 -0.0526
    1W        W56556  21.790  11.745   7.021  0.0020 -0.0586  0.0451
    1W        W56557  24.812   6.975   8.893 -0.0511  0.0483  0.1288
    1W        W56558   0.773   7.219   2.292 -0.1124 -0.2926  0.2770
    1W        W56559   5.812  28.839   6.601 -0.1197 -0.0573  0.1537
    1W        W56560   8.215   5.049   1.842  0.1029  0.1924 -0.0581
    1W        W56561   0.414  20.539   1.113 -0.1955 -0.0851 -0.0193
    1W        W56562   6.229  21.008   1.348 -0.0698 -0.0162  0.0308
    1W        W56563  15.842  14.503   8.108  0.1968 -0.1021 -0.2506
    1W        W56564   9.073   7.228   1.973 -0.3027 -0.1499 -0.0845
    1W        W56565  17.673   7.812   1.787 -0.0741  0.0578 -0.2631
    1W        W56566  11.852   6.233   3.204  0.3045 -0.0403 -0.3039
    1W        W56567  13.279  14.826   7.566 -0.0242 -0.0690 -0.0559
    1W        W56568   3.462   6.312   0.141  0.1044 -0.2742 -0.1694
    1W        W56569  26.575   6.190   0.730  0.0463 -0.0769 -0.2687
    1W        W56570   2.600  17.752   9.112  0.0849  0.0603  0.0560
    1W        W56571  12.357  21.040   7.045 -0.0492 -0.0901  0.2393
    1W        W56572  27.190  23.997   0.045 -0.0455  0.2698 -0.0115
    1W        W56573   1.028   3.745   5.853  0.0163  0.1043 -0.0223
    1W        W56574  10.424  27.693   7.374 -0.0604 -0.0791 -0.0028
    1W        W56575   0.959  12.611   9.280  0.1693  0.0602  0.0762
    1W        W56576  16.758   3.942   3.410  0.1247  0.1734  0.0520
    1W        W56577   9.575   9.124   7.691 -0.1537  0.0142 -0.0492
    1W        W56578  17.648  29.154   2.779  0.2680 -0.0743 -0.1488
    1W        W56579  19.284  24.966   0.884 -0.3252  0.1867  0.2852
    1W        W56580  14.764   9.164   1.836 -0.0264 -0.0934 -0.1568
    1W        W56581  22.356   6.970   8.570  0.1439 -0.3553 -0.0451
    1W        W56582  22.305  11.016   8.226  0.0088 -0.1841  0.0273
    1W        W56583  27.780   3.764   1.524 -0.1047  0.1702 -0.0525
    1W        W56584  27.633  15.200   1.392 -0.0826 -0.1329  0.0277
    1W        W56585  28.236  14.421   8.589 -0.4241 -0.0295  0.1306
    1W        W56586  12.708  10.992   0.760 -0.2066  0.0020  0.1383
    1W        W56587   6.391  27.692   1.801 -0.0913 -0.0410 -0.0681
    1W        W56588  22.606   7.359   2.156 -0.1101  0.5230  0.0979
    1W        W56589  23.709   3.232   7.265 -0.0347 -0.0523  0.0018
    1W        W56590  20.448  28.101   2.428 -0.1578 -0.2728 -0.1357
    1W        W56591  18.187   5.705   0.351  0.3688  0.0835  0.3260
    1W        W56592   6.680   0.340   1.466 -0.1939  0.1391  0.1735
    1W        W56593  26.610   0.707   2.590  0.1990 -0.0460 -0.2154
    1W        W56594   8.124  20.348   1.923  0.0450 -0.0949 -0.0047
    1W        W56595  20.456   7.798   1.389  0.0999 -0.1433 -0.4578
    1W        W56596  17.255  16.224   9.406  0.1772  0.0132  0.0467
    1W        W56597  16.201   5.522   3.106 -0.1438  0.0530  0.0328
    1W        W56598  22.095  15.324   7.934  0.1134  0.0707  0.1446
    1W        W56599  17.804   5.972   0.160  0.1481  0.3081  0.1124
    1W        W56600  23.736   0.921   1.502 -0.0547 -0.0279 -0.0613
    1W        W56601  27.870  15.072   6.476  0.0435 -0.0997  0.1245
    1W        W56602   8.804  26.048   2.235  0.2165 -0.1982 -0.0399
    1W        W56603  11.066   2.716   2.119 -0.1774  0.1271  0.1733
    1W        W56604  24.764  23.029   2.624 -0.0384  0.0653 -0.4520
    1W        W56605  19.411  16.052   1.043  0.2516 -0.3114  0.1235
    1W        W56606   9.104  11.354   0.698 -0.2087 -0.0682  0.4254
    1W        W56607  14.866   9.875   7.767 -0.2538  0.1040 -0.2000
    1W        W56608   5.983   4.409   7.555  0.0674  0.0475 -0.0987
    1W        W56609  24.912  27.986   9.085  0.2892 -0.1393 -0.0448
    1W        W56610  20.859  27.937   8.958  0.0587 -0.2747 -0.2412
    1W        W56611  22.298  27.840   8.303 -0.1062  0.3132 -0.0370
    1W        W56612   9.569  11.592   1.995  0.0860 -0.0845 -0.1003
    1W        W56613  18.361  27.624   8.406  0.1928  0.1279 -0.0208
    1W        W56614  14.984  14.596   8.156  0.0420  0.2295 -0.1291
    1W        W56615  17.872  27.804   8.681 -0.0935  0.0898 -0.1404
    1W        W56616   3.949  22.990   9.432  0.0728  0.1135 -0.3450
    1W        W56617  14.856  23.793   9.487  0.2431  0.3072 -0.1235
    1W        W56618  15.138  12.074   9.062 -0.2164  0.1542 -0.1440
    1W        W56619   3.586  18.909   1.005  0.0642 -0.0127  0.1501
    1W        W56620  27.409   6.196   2.221 -0.0142 -0.1291  0.1961
    1W        W56621  26.895  13.588   5.625 -0.6046 -0.4733 -0.2324
    1W        W56622  18.219   1.758   0.972  0.1833  0.1304 -0.0865
    1W        W56623  19.464   1.073   7.383 -0.0296  0.0144  0.3332
    1W        W56624   8.739   6.163   2.497 -0.1803 -0.0280 -0.2367
    1W        W56625  26.756   4.030   1.583 -0.0364  0.2660 -0.0252
    1W        W56626  11.043   0.237   3.729 -0.0796 -0.3049 -0.0025
    1W        W56627  16.765  23.348   8.313 -0.0156  0.0719  0.4396
    1W        W56628  11.415  21.319   9.269 -0.2512  0.1528  0.1071
    1W        W56629  20.505  16.648   0.217 -0.2415  0.0212  0.1409
    1W        W56630  21.605   9.480   7.305 -0.0093 -0.2448  0.4613
    1W        W56631  11.318  11.819   2.228 -0.0075  0.2710  0.1385
    1W        W56632  11.998  23.703   7.800 -0.1092 -0.0020  0.2464
    1W        W56633  21.236   2.772   9.584  0.0031 -0.0035  0.0305
    1W        W56634   6.710  26.925   1.860 -0.0867  0.1644  0.3352
    1W        W56635  16.711   4.880   1.748 -0.1521 -0.1836  0.2915
    1W        W56636   1.889  24.784   2.039 -0.0694  0.2387 -0.0014
    1W        W56637   3.295   4.830   7.483  0.0553  0.0842 -0.2694
    1W        W56638  18.054   3.150   9.159 -0.0389 -0.0864  0.3523
    1W        W56639  11.729  16.258   0.441  0.0985 -0.3481 -0.4720
    1W        W56640   9.294   6.017   8.604 -0.1347  0.1046 -0.1234
    1W        W56641  20.362   0.096   2.062 -0.3236 -0.2077  0.2059
    1W        W56642  17.272  20.254   7.332  0.1448 -0.0124  0.1715
    1W        W56643  26.579  12.431   1.670 -0.1811  0.1714  0.0173
    1W        W56644  24.141  12.767   0.346 -0.0533 -0.1599  0.2333
    1W        W56645  25.464  14.556   7.417  0.1996 -0.0665 -0.1507
    1W        W56646   5.255   2.771   8.413 -0.1861 -0.0248  0.0956
    1W        W56647  17.745  20.989   9.471  0.2009 -0.0219 -0.2604
    1W        W56648  17.550  10.304   8.798 -0.2988  0.0803  0.0192
    1W        W56649  25.750   9.544   7.652  0.0580  0.0592  0.0864
    1W        W56650  17.428   4.641   8.047  0.0613  0.0701  0.0624
    1W        W56651  15.022  22.683   8.172  0.4774 -0.0963 -0.1086
    1W        W56652  20.102  28.075   0.519 -0.0037  0.0960 -0.1308
    1W        W56653   4.578  19.207   7.745 -0.0461 -0.2404  0.0490
    1W        W56654   0.794  25.618   8.902 -0.4859  0.0541 -0.2754
    1W        W56655   3.679   5.111   8.483  0.0263 -0.2601  0.3969
    1W        W56656  15.371   6.189   9.594  0.0018  0.2588 -0.3192
    1W        W56657   3.230  23.863   0.715  0.2026  0.3157 -0.2804
    1W        W56658   7.707  21.350   8.416 -0.2813  0.1763 -0.2678
    1W        W56659  17.593   2.945   9.345 -0.0158  0.2063 -0.0264
    1W        W56660  15.176  23.849   6.470  0.3188 -0.0323  0.0009
    1W        W56661  10.807   0.738   8.581  0.0686  0.2859  0.0770
    1W        W56662  14.267  24.502   0.117 -0.2691 -0.1784 -0.0120
    1W        W56663  11.264  16.916   1.143  0.3178  0.0443  0.1003
    1W        W56664  18.230  13.817   0.517  0.1078  0.0524 -0.0977
    1W        W56665  26.723  13.196   0.677 -0.1257  0.2467 -0.0240
    1W        W56666  18.827   4.339   6.908  0.1256 -0.5324 -0.1352
    1W        W56667   2.282  27.932   7.428 -0.1478  0.1020  0.0387
    1W        W56668  11.029  22.078   1.881 -0.0337  0.5904  0.0270
    1W        W56669  19.620  22.068   7.959 -0.1136  0.1287 -0.4684
    1W        W56670  19.268   2.109   7.888  0.1070  0.1050 -0.0211
    1W        W56671  19.634  11.711   9.204 -0.2923  0.0089 -0.2063
    1W        W56672  23.262   7.888   2.014 -0.2405  0.1626 -0.0877
    1W        W56673  27.222   7.289   7.821 -0.0949 -0.0384  0.1074
    1W        W56674  19.917  22.031   2.769  0.1999  0.3336  0.2757
    1W        W56675  25.363  24.261   2.776  0.0731  0.0581 -0.0030
    1W        W56676  11.046  10.468   1.659  0.0670  0.2414 -0.0166
    1W        W56677  13.309  10.009   9.105  0.1877 -0.2467 -0.1525
    1W        W56678   3.737   9.704   7.716 -0.0134 -0.0752 -0.1859
    1W        W56679   9.047   3.513   7.303 -0.0956  0.2018 -0.0709
    1W        W56680  19.806   1.299   8.798  0.2596 -0.1403  0.0660
    1W        W56681  16.459  25.697   9.374  0.1259 -0.0221  0.0445
    1W        W56682   4.894   7.730   8.829  0.0730  0.0723  0.2088
    1W        W56683  20.189   4.164   0.626 -0.0205 -0.2405 -0.0907
    1W        W56684  17.487   2.247   7.224 -0.1361 -0.0973  0.0203
    1W        W56685  16.030  13.447   1.778  0.0231 -0.2536 -0.1859
    1W        W56686  27.780  28.526   9.599  0.3498  0.5074 -0.3087
    1W        W56687  18.199  15.364   9.528 -0.1001  0.0967  0.0920
    1W        W56688  18.060   4.497   0.139  0.1886 -0.1983 -0.2361
    1W        W56689   5.704  24.917   7.140 -0.1093 -0.0031  0.0898
    1W        W56690  21.951   6.061   2.020  0.0450  0.1168  0.5678
    1W        W56691  19.252   3.526   1.910  0.4518  0.1091 -0.0164
    1W        W56692  20.555   0.991   9.267  0.1290  0.0197 -0.3375
    1W        W56693  21.887  24.882   6.348  0.0314 -0.4706  0.1105
    1W        W56694  26.899  17.539   9.679 -0.0432 -0.1051 -0.2936
    1W        W56695  14.875  27.668   4.575 -0.0191 -0.2658  0.2692
    1W        W56696   7.710   8.441   8.765 -0.0224 -0.0613 -0.0814
    1W        W56697  21.998   9.918   0.350  0.0201 -0.1098 -0.1223
    1W        W56698   7.075   1.042   1.710  0.2422 -0.0338  0.1749
    1W        W56699   8.634  15.292   1.736  0.1752  0.0454  0.0697
    1W        W56700  13.502   3.694   8.387  0.0556  0.1724 -0.0814
    1W        W56701   7.513  24.195   9.093  0.0316 -0.0890  0.1213
    1W        W56702   6.641  27.036   1.301  0.2794  0.1514 -0.0130
    1W        W56703  28.565  15.242   7.354 -0.1009  0.2832  0.1196
    1W        W56704   4.909  22.233   7.192  0.2573 -0.1727  0.0297
    1W        W56705  11.781  23.417   0.356 -0.2275  0.1294 -0.0257
    1W        W56706   7.492   4.230   9.252  0.3136  0.1428 -0.0153
    1W        W56707   9.213  25.952   9.588  0.1510  0.0102  0.2546
    1W        W56708   0.233  28.706   7.904  0.4017 -0.2731 -0.3717
    1W        W56709  20.978  25.766   7.306  0.0073 -0.0228 -0.0033
    1W        W56710  22.163  15.906   7.425 -0.1024  0.3939  0.1547
    1W        W56711  22.060  21.821   2.838 -0.2905 -0.1062  0.0935
    1W        W56712  20.434  17.405   7.702 -0.0349 -0.0428  0.0878
    1W        W56713  29.183   8.354   8.012  0.1116 -0.0472  0.3507
    1W        W56714  27.045  13.206   1.464  0.1263  0.0520  0.0966
    1W        W56715  27.142  23.188   2.624  0.2939  0.0618 -0.1108
    1W        W56716   6.864   3.251   1.512 -0.1132 -0.1760 -0.0747
    1W        W56717   3.141  16.513   1.286 -0.2118  0.1553 -0.0516
    1W        W56718  28.875  28.366   0.736  0.2151  0.2157  0.1217
    1W        W56719  19.405   7.775   8.003  0.1254  0.1876  0.1399
    1W        W56720   1.574   0.193   1.378 -0.0036  0.2701  0.1239
    1W        W56721   8.463  16.548   6.811  0.0633 -0.1555  0.0019
    1W        W56722  24.176  10.650   0.690 -0.0033  0.0351 -0.3633
    1W        W56723  14.627   0.488   2.659 -0.0862 -0.0602 -0.3792
    1W        W56724  14.580  19.645   2.817 -0.0008 -0.0506 -0.0477
    1W        W56725  27.859   9.753   2.549  0.1269  0.2213 -0.1769
    1W        W56726  15.489  21.662   8.248  0.3244  0.0038 -0.1720
    1W        W56727  20.580  13.244   1.711 -0.0596 -0.0152 -0.0257
    1W        W56728   5.219  12.882   7.698  0.3400  0.2128  0.0417
    1W        W56729   0.393  18.936   8.912  0.2897  0.1938 -0.2302
    1W        W56730   5.673   5.237   3.108  0.1365 -0.1070  0.1004
    1W        W56731  25.860  27.685   7.786 -0.1933  0.0721 -0.2154
    1W        W56732   9.021   8.712   9.536 -0.1191  0.2020  0.1908
    1W        W56733   6.383  15.490   7.748 -0.0064 -0.0856 -0.0167
    1W        W56734  13.674  19.673   7.231  0.2812 -0.0821 -0.0414
    1W        W56735   6.964  15.611   8.913  0.0785 -0.2932  0.1326
    1W        W56736  11.335   8.004   2.650 -0.1395 -0.1351  0.0094
    1W        W56737   0.553  14.596   0.055 -0.1584  0.1729 -0.1154
    1W        W56738  20.973  16.727   1.127 -0.1823 -0.2042 -0.1134
    1W        W56739   7.551   1.409   7.334 -0.1114 -0.0263  0.0673
    1W        W56740  10.174  29.279   1.066 -0.3484  0.1755 -0.2174
    1W        W56741  11.387   4.802   8.946 -0.0138  0.0486  0.1179
    1W        W56742  16.880   5.126   3.544 -0.0771 -0.0372  0.1218
    1W        W56743  23.195  14.323   6.829  0.0010  0.0321  0.1594
    1W        W56744  23.897  21.930   1.036 -0.0283  0.0773 -0.0802
    1W        W56745   5.844   4.668   1.750 -0.0862 -0.1092 -0.2184
    1W        W56746  13.861  25.377   2.840 -0.1198  0.1958 -0.1914
    1W        W56747   6.238  20.775   7.508  0.3546  0.0662 -0.1352
    1W        W56748  10.429   2.906   7.771 -0.2167 -0.0568  0.0315
    1W        W56749  23.445  29.163   0.215 -0.2880  0.1742 -0.0316
    1W        W56750  15.831   1.604   7.756  0.1431 -0.2001 -0.0740
    1W        W56751  11.365  19.087   0.095  0.0520 -0.0456  0.0884
    1W        W56752  28.931   1.612   1.912 -0.0150  0.2088  0.1250
    1W        W56753   3.726  26.724   0.810  0.0933  0.0980 -0.1083
    1W        W56754  20.738   6.065   0.633  0.0838 -0.1388 -0.4862
    1W        W56755   9.145  28.052   1.450 -0.1570 -0.1095 -0.0881
    1W        W56756   4.157   6.397   7.074  0.1438 -0.1021  0.0624
    1W        W56757   0.012  29.336   1.469 -0.0396  0.2318  0.1221
    1W        W56758  11.170  16.561   8.091  0.2217 -0.6550 -0.1902
    1W        W56759  23.666  17.320   0.395 -0.0211  0.0517  0.0088
    1W        W56760   7.444   3.034   0.063 -0.3738  0.0173  0.0730
    1W        W56761  12.445   8.722   2.918 -0.2154  0.3191 -0.1970
    1W        W56762  27.050   4.033   5.803 -0.0929  0.2530  0.1616
    1W        W56763   2.557  12.056   8.935 -0.1954 -0.0731  0.0549
    1W        W56764  12.469   4.391   1.882  0.0287 -0.2314 -0.1136
    1W        W56765   6.711   1.996   2.463 -0.1062  0.1867  0.3588
    1W        W56766  10.392  19.820   9.051 -0.1420 -0.1163  0.0003
    1W        W56767  19.124   2.541   9.024  0.1594 -0.2145  0.2223
    1W        W56768  20.615  15.696   0.772  0.3043  0.3028  0.2763
    1W        W56769  12.011   8.950   1.388  0.0006 -0.0072  0.2265
    1W        W56770   7.968  24.018   1.523 -0.0762  0.1456 -0.0593
    1W        W56771  13.496  17.378   0.192  0.1786  0.1438  0.2329
    1W        W56772   2.414  19.050   6.323 -0.1159  0.2324 -0.1256
    1W        W56773  24.747  29.018   3.080  0.0679  0.3153 -0.1548
    1W        W56774  27.321  17.224   5.692  0.1297 -0.1012 -0.2725
    1W        W56775  11.559  12.054   1.364 -0.3331  0.1389  0.1259
    1W        W56776   8.522   7.375   3.126 -0.3634  0.2232 -0.1937
    1W        W56777  16.809  16.305   0.873 -0.1344 -0.1400  0.1875
    1W        W56778   9.139  28.627   2.954 -0.4761 -0.4474 -0.6375
    1W        W56779  16.317  13.645   6.843  0.0505  0.2899 -0.2744
    1W        W56780  20.685   2.913   1.855  0.0772 -0.1081  0.2170
    1W        W56781  11.422   3.617   0.021  0.0834  0.1172 -0.1093
    1W        W56782  26.724  27.124   8.553 -0.2738 -0.0940  0.0374
    1W        W56783   6.418  24.268   1.507  0.0084 -0.1982  0.1475
    1W        W56784   4.005  27.087   8.184 -0.2481 -0.1080  0.0948
    1W        W56785  29.183   6.998   7.041  0.0810 -0.0859 -0.0269
    1W        W56786  26.775  18.930   9.400 -0.2520  0.0648  0.2060
    1W        W56787  23.756  11.765   1.403 -0.0893 -0.0449  0.0506
    1W        W56788  10.285   3.836   9.223 -0.2582  0.0608  0.1537
    1W        W56789  18.497  16.886   7.588  0.0616  0.0740  0.1418
    1W        W56790  26.412   2.976   1.507  0.1006  0.0139 -0.0327
    1W        W56791  11.915  25.618   6.419 -0.1827  0.1438 -0.1397
    1W        W56792  14.259   5.934   2.016  0.3551  0.1074  0.0974
    1W        W56793  13.126  23.663   0.920 -0.0423 -0.2147  0.1956
    1W        W56794  27.945  13.027   1.271  0.0908 -0.0988 -0.3149
    1W        W56795  12.203   3.342   1.417  0.0809 -0.0467 -0.1014
    1W        W56796  23.146   5.936   1.393  0.1947 -0.0183 -0.1003
    1W        W56797  13.511  12.133   1.852  0.1572  0.1509 -0.0591
    1W        W56798  27.720  21.811   9.027 -0.0653  0.0710  0.1636
    1W        W56799  29.209  18.826   9.021  0.3862  0.2949  0.0879
    1W        W56800  18.836  23.936   0.544  0.0871  0.2498 -0.1152
    1W        W56801  21.814   9.479   0.200 -0.1217  0.0443  0.1362
    1W        W56802  24.592   7.954   7.954  0.0012 -0.2491  0.0884
    1W        W56803   0.064  12.859   6.350 -0.3175  0.0342 -0.0055
    1W        W56804  28.614   5.407   6.274 -0.0877  0.1659 -0.0914
    1W        W56805  16.430   6.055   7.918  0.1062  0.0402 -0.1589
    1W        W56806  12.456   6.281   8.610 -0.0422  0.1469  0.0660
    1W        W56807   4.248  21.220   0.630 -0.2394 -0.3431 -0.3605
    1W        W56808  21.511  13.318   2.204  0.0394 -0.1722 -0.0018
    1W        W56809   9.373  26.021   6.616  0.1605  0.3853  0.0658
    1W        W56810   9.574   5.576   9.441 -0.0461 -0.0408 -0.0466
    1W        W56811   6.862  24.812   9.153  0.4875 -0.0443  0.2230
    1W        W56812   3.061  27.668   2.216  0.0874  0.0748 -0.2702
    1W        W56813  23.113  22.876   1.803 -0.0026 -0.0563 -0.0684
    1W        W56814  10.794   8.526   8.451  0.0195 -0.0108 -0.1581
    1W        W56815   2.897   8.652   7.224 -0.1382  0.0601  0.0117
    1W        W56816  25.437  28.432   3.103  0.1310 -0.0888 -0.2093
    1W        W56817  13.979   0.057   7.434 -0.0776  0.1197  0.3997
    1W        W56818   3.527   3.758   7.735 -0.2833  0.1830 -0.0502
    1W        W56819  14.300  11.409   0.819  0.0443 -0.0330  0.1239
    1W        W56820  12.192  13.718   1.147 -0.3790 -0.3134 -0.1814
    1W        W56821  19.219  26.555   3.405  0.0922  0.2458 -0.0367
    1W        W56822  15.376   4.560   8.762 -0.1804 -0.2691  0.2546
    1W        W56823  10.877   0.065   9.062  0.1832 -0.3382  0.0840
    1W        W56824   5.630  12.237   7.434 -0.2251  0.0961 -0.2098
    1W        W56825  10.720  13.811   0.705  0.0138  0.1390  0.0777
    1W        W56826   4.353  18.190   1.243 -0.0207 -0.1501  0.1195
    1W        W56827  26.534   2.442   2.214 -0.0832  0.0250 -0.1169
    1W        W56828  18.928  22.189   8.204 -0.3364  0.2364 -0.1049
    1W        W56829  19.415  21.994   6.913  0.2129 -0.1786  0.0321
    1W        W56830   0.651  27.537   0.934 -0.1485  0.4306 -0.0639
    1W        W56831   5.288  21.390   0.846  0.0698  0.0867 -0.0573
    1W        W56832  27.640   3.701   6.523  0.1146  0.0622  0.0004
    1W        W56833  14.947   3.686   3.595  0.0943  0.0650  0.1608
    1W        W56834  27.247  10.081   8.652 -0.3945  0.0307  0.1865
    1W        W56835   2.181  12.173   0.955  0.0048 -0.2184  0.4490
    1W        W56836   6.217  20.068   7.404 -0.0505 -0.0468 -0.1191
    1W        W56837   4.336  28.220   8.746 -0.2307  0.3443 -0.1749
    1W        W56838  23.772  26.676   8.225  0.0046 -0.2899 -0.1457
    1W        W56839  29.025   0.088   0.759  0.1716  0.2139 -0.0699
    1W        W56840  28.242  20.445   6.550 -0.0225  0.0752  0.0213
    1W        W56841  11.360  24.311   7.473  0.1958 -0.1311 -0.0275
    1W        W56842   1.287   5.196   6.514 -0.0410  0.1636 -0.1885
    1W        W56843   2.513  28.617   7.818 -0.0736  0.1673  0.0766
    1W        W56844   0.346  16.623   1.597 -0.0231  0.1997  0.0407
    1W        W56845   0.351   5.184   7.385  0.2936  0.0357  0.2437
    1W        W56846  26.081  18.962   8.937  0.1945  0.1204 -0.0618
    1W        W56847  13.420  27.576   4.347 -0.0911  0.0206  0.1840
    1W        W56848  20.955  12.222   6.806 -0.2994  0.2617  0.0396
    1W        W56849  19.943   5.814   1.849 -0.0231  0.0419 -0.2185
    1W        W56850   0.961  22.558   1.562  0.2474 -0.0623  0.2098
    1W        W56851  19.916  13.879   9.542 -0.0284 -0.0530 -0.0736
    1W        W56852  16.255  11.814   7.696  0.1112  0.0186 -0.2906
    1W        W56853  29.286   1.660   6.852  0.1179  0.1407 -0.1874
    1W        W56854  24.731  27.358   0.294  0.0945  0.0537  0.1728
    1W        W56855  19.913  27.450   1.311  0.1910 -0.0921 -0.0401
    1W        W56856  17.249  23.916   2.663 -0.0211  0.0073 -0.0912
    1W        W56857  24.871   2.486   1.452  0.0761 -0.0746  0.0690
    1W        W56858   0.113  28.976   9.597 -0.0460 -0.0187 -0.3113
    1W        W56859  22.475   3.910   8.516 -0.1265  0.0380 -0.2990
    1W        W56860   1.201  20.384   8.376  0.3363  0.0965  0.1207
    1W        W56861  19.765  19.960   7.703 -0.2495 -0.2940 -0.1149
    1W        W56862   1.424   5.738   4.970  0.2091  0.0026  0.3219
    1W        W56863  10.905   3.849   1.877  0.0653 -0.1121 -0.3330
    1W        W56864   2.258   8.544   7.731  0.2550  0.2217 -0.0330
    1W        W56865   6.567  15.469   1.389  0.0059  0.0939  0.0883
    1W        W56866  11.303  19.485   2.194 -0.4619  0.0060 -0.1698
    1W        W56867   3.001  14.611   8.392  0.1832 -0.0181  0.1635
    1W        W56868  20.792  20.157   9.312  0.0741 -0.2514 -0.1314
    1W        W56869   3.656  23.384   8.746  0.0051  0.0713 -0.0413
    1W        W56870  21.341  20.876   1.785  0.1939  0.1130 -0.0354
    1W        W56871   1.972  15.135   2.243  0.1995  0.1667  0.1278
    1W        W56872  28.330  28.952   8.806 -0.0079 -0.1203  0.0544
    1W        W56873  15.317   5.211   2.639  0.0683 -0.0203 -0.3859
    1W        W56874   3.200  20.857   0.560  0.0807  0.3420 -0.1343
    1W        W56875  15.246  14.786   0.623  0.0927  0.0933 -0.0906
    1W        W56876  18.345  22.588   1.665 -0.2429  0.0401 -0.1391
    1W        W56877   2.974  18.299   8.524 -0.1887  0.1749  0.0304
    1W        W56878   7.323  25.649   8.612  0.1241 -0.5673 -0.0630
    1W        W56879  24.458  26.849   7.537  0.0590  0.1639  0.1674
    1W        W56880   7.403  11.620   8.518  0.0987  0.0104  0.1858
    1W        W56881  13.301  25.147   7.439 -0.0262  0.5281 -0.1710
    1W        W56882  24.019  22.977   2.187 -0.1543  0.2580 -0.1198
    1W        W56883  18.009  18.550   1.958 -0.0666  0.0678  0.2736
    1W        W56884   9.048  17.493   7.805  0.1421 -0.0771  0.3778
    1W        W56885  11.258  22.458   1.497  0.1072 -0.3402  0.2748
    1W        W56886   9.493  21.031   1.969 -0.1078 -0.0897  0.1382
    1W        W56887  24.863  18.867   7.060  0.0580  0.3217 -0.1664
    1W        W56888  18.925  10.321   2.145  0.0083  0.1100 -0.3266
    1W        W56889  20.487  20.729   8.746 -0.1810 -0.3432 -0.0698
    1W        W56890   9.016  20.153   0.393 -0.0394 -0.2508 -0.2550
    1W        W56891  12.052   7.921   7.953  0.0785  0.1632 -0.1680
    1W        W56892   3.337   0.050   1.994 -0.0146 -0.1863  0.0032
    1W        W56893  22.475  11.250   6.758 -0.0512 -0.2756 -0.2244
    1W        W56894  25.948   5.636   7.825 -0.1285  0.2550 -0.0077
    1W        W56895   2.367  13.846   7.190  0.1671  0.1216  0.1133
    1W        W56896  25.855   3.837   9.257  0.3249 -0.0689  0.0868
    1W        W56897  13.216  13.847   1.803 -0.0397 -0.0774  0.0874
    1W        W56898  25.633   1.721   9.085 -0.1711  0.0258 -0.1098
    1W        W56899  22.649  27.497   7.583  0.1001 -0.0857 -0.0153
    1W        W56900  26.538  27.391   8.993  0.1194  0.2691 -0.2419
    1W        W56901  12.063  19.996   7.294  0.0646  0.2417  0.3943
    1W        W56902  28.842   6.835   2.332 -0.1826  0.0158  0.0827
    1W        W56903  17.814  14.428   1.914 -0.3496  0.0753  0.1565
    1W        W56904   5.682   7.047   2.603  0.3411 -0.0592 -0.1602
    1W        W56905   0.965  15.290   8.371 -0.0205 -0.0587  0.0326
    1W        W56906  10.462  10.818   8.029  0.2025 -0.1858 -0.2965
    1W        W56907  22.267  13.934   7.518  0.1849 -0.0114 -0.2319
    1W        W56908  23.507  25.037   1.959  0.1861 -0.0927  0.0312
    1W        W56909  21.678  20.223   1.904 -0.0531 -0.1749  0.0453
    1W        W56910  17.097  12.189   9.071 -0.1289  0.0814 -0.2481
    1W        W56911   0.855  20.463   7.502  0.1776  0.0572 -0.1631
    1W        W56912  26.205   2.368   2.846 -0.2192 -0.0707 -0.2904
    1W        W56913   7.019  16.294   9.405  0.2156 -0.1999 -0.2415
    1W        W56914  16.798  23.549   1.911  0.2111  0.1412  0.4243
    1W        W56915   8.633  25.041   9.159  0.2665  0.3946 -0.0141
    1W        W56916   1.207  10.096   9.264 -0.0087  0.1350  0.0747
    1W        W56917  22.312   2.164   0.263  0.1938  0.1240  0.1919
    1W        W56918  21.027   5.759   0.964 -0.5549 -0.0160 -0.2910
    1W        W56919  11.596  27.108   1.287  0.2474 -0.0141 -0.0173
    1W        W56920  21.661   7.338   1.611 -0.4257 -0.0019 -0.0253
    1W        W56921   2.625  18.299   2.872 -0.0553  0.3478 -0.0742
    1W        W56922  23.592  15.817   2.595  0.0911  0.2273 -0.3367
    1W        W56923   2.213  22.727   9.187 -0.0612 -0.3962  0.1950
    1W        W56924  26.515   4.472   8.511 -0.2763 -0.1139 -0.0296
    1W        W56925  17.518   7.788   8.238  0.3638  0.1229 -0.3065
    1W        W56926  10.988  18.661   1.618 -0.3172 -0.3733  0.1607
    1W        W56927  18.194  17.251   7.770  0.0528  0.1934  0.1796
    1W        W56928   6.418  16.495   1.248 -0.0133 -0.0814 -0.2479
    1W        W56929   0.179  15.425   0.621  0.0838 -0.1340 -0.2510
    1W        W56930  24.476   6.836   2.117  0.0934 -0.1506 -0.1758
    1W        W56931  14.454   5.155   0.284  0.0164  0.0862  0.3983
    1W        W56932   7.091   2.735   0.004  0.0119  0.1101  0.0340
    1W        W56933   3.787   8.213   7.408 -0.1841 -0.0524 -0.1298
    1W        W56934   6.731  27.375   1.991 -0.3002 -0.0151 -0.2733
    1W        W56935  18.571  16.999   9.061  0.0380 -0.2900 -0.1689
    1W        W56936   5.240   9.996   6.400  0.0266 -0.3957 -0.0122
    1W        W56937  12.492  17.486   1.779  0.0894  0.0664 -0.0845
    1W        W56938  20.388  18.164   8.069 -0.0734  0.0302 -0.1668
    1W        W56939  28.922   9.645   9.252  0.0396 -0.0903  0.2379
    1W        W56940  14.265  18.042   2.176 -0.3370  0.0965 -0.2080
    1W        W56941   3.930   7.241   0.517 -0.0598 -0.0874  0.0637
    1W        W56942   7.128   9.020   0.360 -0.2064  0.1054  0.3117
    1W        W56943  20.100  24.676   6.888 -0.1838  0.2172  0.0225
    1W        W56944  21.093   4.959   0.967  0.1990 -0.0586  0.2787
    1W        W56945  18.652   6.138   1.691  0.0213 -0.1853  0.1567
    1W        W56946  20.722  27.685   1.167 -0.1376  0.1033  0.0125
    1W        W56947  24.655   9.584   7.111 -0.1902  0.0509 -0.0344
    1W        W56948  12.272  11.041   7.646 -0.1949 -0.3419  0.1638
    1W        W56949  26.974  14.016   6.857 -0.0527 -0.3726 -0.0111
    1W        W56950  16.294   1.200   2.347 -0.0137  0.0281  0.0215
    1W        W56951  15.982  23.949   8.453 -0.2273  0.2688  0.1819
    1W        W56952  15.631   2.722   1.101  0.1360  0.1737 -0.0633
    1W        W56953   4.449  22.001   6.060  0.1059  0.1038  0.0850
    1W        W56954  19.463  23.681   8.188 -0.1804 -0.1350 -0.0000
    1W        W56955   9.534   6.984   8.751 -0.0628  0.2502  0.1505
    1W        W56956  19.018  16.774   8.232 -0.4754 -0.2967 -0.0821
    1W        W56957  13.769  11.823   7.238  0.0179  0.4574  0.2333
    1W        W56958  26.310  16.216   2.239 -0.3673  0.1438 -0.2153
    1W        W56959  16.891  19.247   7.622 -0.0849 -0.0837  0.2701
    1W        W56960  27.502  11.274   1.503 -0.1455 -0.0462 -0.0120
    1W        W56961  26.557   2.181   8.899 -0.1965 -0.0767  0.1110
    1W        W56962   9.090  10.891   8.903  0.2018  0.0322 -0.2873
    1W        W56963  28.251  26.230   8.275 -0.0792 -0.1084 -0.1468
    1W        W56964  27.492   8.038   1.293 -0.2811  0.1955 -0.1582
    1W        W56965  27.810   7.630   6.971 -0.1502 -0.2176  0.0802
    1W        W56966  19.255  17.171   8.033  0.0892 -0.1310  0.0566
    1W        W56967   4.380  24.582   2.329 -0.1818  0.5225  0.2251
    1W        W56968  21.833  18.555   7.799  0.2024  0.0990  0.1425
    1W        W56969   1.542  20.154   0.827  0.1316  0.1852  0.0523
    1W        W56970  14.788  20.536   7.427  0.2313  0.0337 -0.1892
    1W        W56971  28.519  28.843   2.802 -0.2771  0.1096 -0.0646
    1W        W56972  26.001  18.677   2.773 -0.2943  0.1292 -0.3742
    1W        W56973  13.436   5.861   9.042  0.2932  0.0194 -0.0951
    1W        W56974   3.896   2.247   7.907  0.1753 -0.2038  0.0393
    1W        W56975  28.601  17.919   8.607  0.0696 -0.1307 -0.2450
    1W        W56976   4.676   0.773   9.256  0.1564 -0.0339  0.0876
    1W        W56977   0.784  28.125   8.405 -0.0714  0.0125  0.0071
    1W        W56978  14.259  25.779   1.342  0.1669  0.0977  0.1045
    1W        W56979  17.444   2.683   1.590 -0.0923  0.1779  0.1290
    1W        W56980  21.393  17.816   1.995  0.0116 -0.1381  0.3827
    1W        W56981  22.933  13.913   6.555  0.1466 -0.0658  0.1328
    1W        W56982  15.225   4.581   2.004 -0.1639  0.0103 -0.4013
    1W        W56983  14.287  24.239   8.831 -0.1589 -0.2002  0.2653
    1W        W56984  19.882  26.301   3.761  0.1717 -0.3045  0.2892
    1W        W56985  11.683  18.827   8.681 -0.2731  0.2095  0.4265
    1W        W56986  11.642   8.520   1.952 -0.0290 -0.2223 -0.2070
    1W        W56987   6.123  25.551   8.382  0.1519  0.2095  0.1690
    1W        W56988   3.645   2.344   8.748 -0.0758 -0.0446 -0.0329
    1W        W56989  20.510  27.922   0.758 -0.0918 -0.1787  0.0134
    1W        W56990   2.287  20.078   0.511 -0.1253 -0.2337  0.0063
    1W        W56991  16.891  20.755   1.613 -0.2299 -0.0434 -0.0893
    1W        W56992  17.027  28.721   7.341  0.2841  0.0168 -0.2902
    1W        W56993   1.075  28.435   1.925  0.2511  0.1506  0.2016
    1W        W56994   0.919  10.790   7.080 -0.1958 -0.0239 -0.0260
    1W        W56995  19.606  12.277   1.844 -0.2938 -0.3521  0.2443
    1W        W56996  12.143   1.372   0.527  0.2147  0.0953 -0.3805
    1W        W56997  15.979   6.168   0.603 -0.0180  0.0341  0.1325
    1W        W56998   8.164  10.274   1.797  0.2845 -0.1391 -0.1387
    1W        W56999   1.711  23.054   1.568  0.1473 -0.1846 -0.0054
    1W        W57000  13.864  21.503   6.623 -0.0226  0.0955 -0.0096
    1W        W57001   1.043  28.204   0.378 -0.4332  0.0273 -0.2359
    1W        W57002   8.111  28.216   8.155  0.1011 -0.0362 -0.0977
    1W        W57003  22.112  10.888   0.268  0.1235  0.0335 -0.3106
    1W        W57004   7.335   7.441   7.447 -0.0515  0.1292 -0.0492
    1W        W57005  24.252  24.502   2.949  0.1506  0.1444  0.2757
    1W        W57006  24.198   4.799   8.684 -0.0179  0.0041 -0.1813
    1W        W57007  29.082  12.572   2.316  0.2692  0.2432 -0.0463
    1W        W57008   2.329   1.314   1.367 -0.1239  0.1978 -0.0256
    1W        W57009   2.039   4.452   6.922  0.1122  0.1501  0.0386
    1W        W57010  23.534  23.245   9.543  0.1729  0.2756 -0.2937
    1W        W57011  26.687  18.862   1.075  0.1353 -0.2851  0.0815
    1W        W57012  26.680  15.252   5.487 -0.0860 -0.1034  0.2924
    1W        W57013  15.206   4.781   9.531  0.0171  0.3629  0.0073
    1W        W57014  22.631   4.376   9.248  0.3295 -0.2038  0.0108
    1W        W57015   5.912  26.856   6.962 -0.0634 -0.1997  0.1593
    1W        W57016  10.448   2.034   2.004 -0.0991  0.0999 -0.1398
    1W        W57017  26.752  14.207   6.447 -0.0636  0.3071  0.0105
    1W        W57018  27.601  24.846   1.754 -0.1889 -0.2968  0.3977
    1W        W57019   9.262  23.050   5.809  0.0208  0.2102  0.1678
    1W        W57020  19.520  25.008   6.440  0.0327  0.1018  0.0487
    1W        W57021   1.341   8.311   6.512  0.0819 -0.2081 -0.0643
    1W        W57022  18.357  22.781   0.582  0.0177  0.0124  0.1766
    1W        W57023  23.407  19.267   7.631 -0.2990  0.0479 -0.0574
    1W        W57024  26.787  23.135   8.232  0.2532 -0.2500 -0.0422
    1W        W57025  11.572  15.142   2.814  0.0567  0.0984  0.2150
    1W        W57026  10.657  28.398   6.800 -0.0097  0.2424  0.0188
    1W        W57027  24.669  17.463   1.371  0.0054  0.1783  0.1871
    1W        W57028  17.475  14.732   2.715 -0.2691  0.2143 -0.2590
    1W        W57029   6.430   7.832   9.273  0.0709 -0.0135  0.0973
    1W        W57030  25.384   2.217   9.270  0.3313  0.0986  0.3322
    1W        W57031  14.792   8.296   1.951  0.1926  0.2027 -0.2222
    1W        W57032  25.062  23.368   8.954  0.1899 -0.1916 -0.0397
    1W        W57033  29.001  18.772   7.521 -0.0105  0.1245  0.3326
    1W        W57034  28.569   1.380   7.248  0.2079  0.2385  0.1955
    1W        W57035   9.219  20.320   6.694  0.1680 -0.0993 -0.0011
    1W        W57036   3.446  19.778   8.832  0.0516 -0.0754  0.0364
    1W        W57037  11.127   6.628   1.926  0.0301 -0.2412 -0.0473
    1W        W57038  28.917  26.921   0.949  0.2345  0.0919  0.2068
    1W        W57039   8.026   0.886   8.449  0.1979  0.0167 -0.3069
    1W        W57040  19.180  13.169   0.128 -0.1516 -0.2389  0.1633
    1W        W57041  14.023  21.467   2.051 -0.0138  0.2242 -0.1416
    1W        W57042  25.562   4.633   6.529 -0.0811  0.0545  0.3432
    1W        W57043  17.859  26.892   9.373 -0.1362 -0.0364  0.1836
    1W        W57044  20.818  21.797   2.501 -0.0038  0.0075 -0.2341
    1W        W57045  15.473  18.605   8.059  0.5678  0.3829 -0.2323
    1W        W57046   0.270  12.339   0.843  0.0886  0.1799 -0.0860
    1W        W57047  26.412  25.463   2.230  0.0152 -0.1669 -0.2045
    1W        W57048   5.679  10.286   1.165  0.3506  0.2037  0.0432
    1W        W57049  14.560  19.312   2.002 -0.0421  0.0175  0.1435
    1W        W57050   2.953  12.398   8.896  0.0798 -0.1117 -0.0335
    1W        W57051  27.676  14.569   6.782  0.2128 -0.0118 -0.0749
    1W        W57052  17.716  25.546   9.324 -0.2594  0.0858 -0.2676
    1W        W57053  26.748  11.881   1.743  0.1114 -0.1498 -0.1209
    1W        W57054   5.055   5.466   7.086 -0.3050  0.0328  0.2535
    1W        W57055   7.900  28.238   9.113 -0.2435 -0.1885  0.1935
    1W        W57056  23.159  28.724   0.416 -0.2683 -0.0803  0.1370
    1W        W57057   9.488   0.320   7.854  0.0995 -0.2208 -0.2194
    1W        W57058  10.005  21.235   1.640  0.2478  0.0108 -0.0038
    1W        W57059  15.211  23.182   1.999 -0.1086 -0.2676  0.4172
    1W        W57060  23.853  22.502   2.644 -0.0532 -0.1330  0.1085
    1W        W57061   3.956  14.950   9.480 -0.1072  0.2283 -0.0679
    1W        W57062  10.968   5.833   3.613  0.0773 -0.0382  0.1572
    1W        W57063  16.403   2.210   6.710 -0.1554 -0.0515 -0.1348
    1W        W57064   7.837  22.232   1.767 -0.1568 -0.2879  0.0315
    1W        W57065   2.067  16.443   7.859  0.0356 -0.0299 -0.0860
    1W        W57066  19.777  28.697   6.334  0.0242  0.0742 -0.2145
    1W        W57067  23.325   1.253   7.582 -0.0341 -0.1616  0.0249
    1W        W57068   5.129  12.972   6.510 -0.0439  0.3005  0.0375
    1W        W57069  23.771  13.534   6.485 -0.3262  0.1707  0.1072
    1W        W57070  14.509  16.850   1.641  0.0999  0.1375 -0.1656
    1W        W57071  18.232  19.434   0.895  0.3826 -0.2249  0.3358
    1W        W57072  22.388  27.741   8.851  0.0862  0.1338  0.3528
    1W        W57073   3.468  11.021   0.464  0.0032 -0.3995 -0.1170
    1W        W57074   2.671  18.877   7.415 -0.3960 -0.2853  0.1369
    1W        W57075  16.180  20.119   7.974 -0.2464  0.1178 -0.0457
    1W        W57076   8.500   3.395   9.282 -0.0929  0.1414  0.2278
    1W        W57077  18.821  25.364   7.318 -0.4155 -0.1810 -0.0571
    1W        W57078  28.088  10.233   2.671  0.0936  0.3335 -0.1566
    1W        W57079  15.078   4.362   3.042 -0.0244  0.1397 -0.1723
    1W        W57080  26.322  28.045   9.616 -0.0278 -0.0209  0.0425
    1W        W57081  25.219   2.272   8.080 -0.2562  0.0023  0.3429
    1W        W57082  23.542  17.053   7.456  0.2185 -0.0432 -0.0492
    1W        W57083  28.734   4.098   0.187 -0.0085 -0.0904 -0.1549
    1W        W57084   5.771  17.751   8.557 -0.0084  0.1592 -0.0163
    1W        W57085  16.898  21.188   0.491  0.0070 -0.0371  0.0745
    1W        W57086  20.943  14.636   9.669  0.1150 -0.0497 -0.0850
    1W        W57087  15.282  11.450   2.216  0.0231 -0.2379 -0.5591
    1W        W57088   0.859   1.370   7.864 -0.1545  0.1224 -0.0227
    1W        W57089  20.931  10.946   0.198  0.2151  0.1084 -0.0170
    1W        W57090  20.085   7.544   9.100  0.0150  0.1036  0.0384
    1W        W57091  13.396  20.799   8.173  0.4361  0.1109  0.2096
    1W        W57092   4.161  18.730   2.063  0.0115  0.1870 -0.2199
    1W        W57093  17.527  18.211   0.086 -0.2928 -0.0649  0.1647
    1W        W57094   3.367  16.106   6.457 -0.1981  0.1206 -0.2844
    1W        W57095   3.247  28.284   7.424  0.3407 -0.0430 -0.2465
    1W        W57096  20.349  16.894   2.271 -0.2304  0.1106  0.0668
    1W        W57097  25.837  11.513   1.298  0.0103 -0.0223  0.1140
    1W        W57098   9.826  21.692   0.397 -0.1708 -0.0011 -0.1087
    1W        W57099  10.191  12.752   0.034 -0.3296 -0.2761 -0.0133
    1W        W57100  10.154   2.336   3.183  0.2448 -0.0394 -0.1338
    1W        W57101  26.143   0.631   0.694  0.2239 -0.0609 -0.0307
    1W        W57102  10.964  17.965   8.395 -0.1562 -0.0184 -0.1645
    1W        W57103  18.139   2.207   9.151  0.1049 -0.0187  0.1413
    1W        W57104  27.048   1.133   8.201  0.0979  0.1613 -0.3220
    1W        W57105   9.749  27.017   1.187  0.0823 -0.0414 -0.2229
    1W        W57106  21.540  25.932   9.550 -0.1422 -0.1516  0.4056
    1W        W57107   6.836  13.228   9.546 -0.0325 -0.2611  0.0848
    1W        W57108  19.464  26.894   7.517 -0.0303 -0.1321  0.2249
    1W        W57109   2.841  13.044   1.995  0.2778 -0.0235  0.2226
    1W        W57110  27.576   0.569   6.677 -0.1620  0.0688  0.1409
    1W        W57111   1.449  15.342   7.160  0.1812 -0.4451  0.0730
    1W        W57112  22.469  14.192   1.270 -0.1850  0.2300 -0.0647
    1W        W57113  20.791  26.991   1.879  0.4043 -0.1418 -0.0524
    1W        W57114   3.599   5.050   0.468  0.3656  0.2810 -0.2049
    1W        W57115   8.751  22.512   7.107  0.0838 -0.0671  0.0575
    1W        W57116   5.842  22.901   2.040  0.2438  0.0016  0.2723
    1W        W57117   1.125   7.419   6.144 -0.2050  0.0308  0.1823
    1W        W57118  10.679   5.468   8.537 -0.0621  0.1936 -0.5243
    1W        W57119  16.105  18.061   2.425  0.1635  0.0782  0.0317
    1W        W57120  24.154   6.813   7.031  0.3571  0.1296 -0.0906
    1W        W57121  21.546  26.078   0.318 -0.0653 -0.1257 -0.1510
    1W        W57122   6.083  24.432   0.261 -0.1370  0.1148  0.1158
    1W        W57123  16.821   1.177   2.353 -0.0839  0.1063  0.1745
    1W        W57124   4.843  20.151   0.507 -0.1102 -0.0328  0.1573
    1W        W57125  28.683  16.882   1.297 -0.1702 -0.0057  0.0108
    1W        W57126   9.269   1.867   3.194  0.1229 -0.0591  0.1991
    1W        W57127  13.043   8.599   9.124  0.3447 -0.1170 -0.3089
    1W        W57128  16.633  14.989   7.846 -0.3686 -0.1117  0.2067
    1W        W57129   7.627  11.578   9.013  0.3001 -0.0115 -0.1641
    1W        W57130   3.013   6.187   0.179 -0.0878  0.1509  0.4407
    1W        W57131   7.835  10.379   7.851  0.2294 -0.2496  0.1432
    1W        W57132  19.386  25.999   2.722  0.1307 -0.1163  0.2924
    1W        W57133  16.030  28.531   8.331  0.0097 -0.0131 -0.1361
    1W        W57134   6.621  13.766   7.152  0.0587  0.2871  0.0245
    1W        W57135   0.986  10.354   0.425 -0.0184  0.2333 -0.0176
    1W        W57136   1.535  27.372   3.354  0.0486  0.3988 -0.1001
    1W        W57137   2.191  24.537   2.398  0.3013 -0.1584 -0.4381
    1W        W57138  19.088  22.599   7.949 -0.0916 -0.1059 -0.1626
    1W        W57139  23.989  27.040   7.590  0.1057  0.2746 -0.1288
    1W        W57140   4.316   7.426   8.161  0.1104  0.0553 -0.3024
    1W        W57141  12.820  15.331   0.397  0.0680 -0.0884  0.1616
    1W        W57142   0.855   4.383   0.805 -0.0057  0.1197 -0.0473
    1W        W57143   0.619  28.705   2.044  0.2122 -0.0859  0.2027
    1W        W57144   0.428  12.887   9.448  0.2429 -0.0623  0.1855
    1W        W57145  17.559  17.112   0.721  0.0893 -0.3300  0.0217
    1W        W57146  17.567  25.302   0.507 -0.1334 -0.1607 -0.1214
    1W        W57147   3.836   4.282   6.688 -0.1950 -0.0773 -0.0393
    1W        W57148  23.995  10.431   1.496 -0.1686  0.0914 -0.2725
    1W        W57149  14.079  14.664   0.374 -0.0432 -0.0852  0.1115
    1W        W57150  18.324  21.390   0.902 -0.0556 -0.1632 -0.1031
    1W        W57151  17.991  11.135   2.200  0.2667 -0.4239 -0.2790
    1W        W57152  26.467  20.421   7.226  0.0846  0.1879 -0.0948
    1W        W57153   3.679   4.237   9.603  0.1280 -0.1331 -0.1403
    1W        W57154  28.385  28.471   8.059  0.1877 -0.0390  0.0839
    1W        W57155   0.105  11.680   8.786  0.2533 -0.0779 -0.0749
    1W        W57156   7.459  13.338   2.756 -0.1637  0.2444 -0.2787
    1W        W57157  24.795  22.765   3.080  0.2468 -0.1415 -0.1584
    1W        W57158  11.458  11.750   7.511 -0.2002 -0.0835  0.0831
    1W        W57159  24.289   7.501   0.339  0.1577  0.4208  0.4066
    1W        W57160   2.182   5.877   7.170 -0.1465 -0.0835 -0.2503
    1W        W57161   0.561  18.873   1.768 -0.2692 -0.1219  0.2693
    1W        W57162   6.568  27.027   0.064  0.4099 -0.2972 -0.1818
    1W        W57163  18.798  27.257   0.645 -0.1346 -0.1300 -0.0467
    1W        W57164   7.042   5.171   8.881  0.4987 -0.0380 -0.0485
    1W        W57165  20.632  13.563   2.630 -0.1033  0.0014 -0.0144
    1W        W57166  22.167   9.757   0.809  0.1206  0.0256  0.0555
    1W        W57167  13.922  13.346   1.298  0.0448  0.1329  0.1279
    1W        W57168  21.604  16.944   1.844  0.4880 -0.0463  0.3664
    1W        W57169  27.560  24.165   6.843 -0.0364 -0.1060 -0.0970
    1W        W57170   3.832  19.240   0.179 -0.2340 -0.2702  0.0905
    1W        W57171  27.056   1.932   2.702 -0.1161  0.2005  0.2008
    1W        W57172   3.631   0.850   7.714 -0.0980 -0.1579 -0.1286
    1W        W57173  21.636  16.836   9.584  0.0780  0.0953 -0.2178
    1W        W57174  13.003   1.726   0.898  0.0273 -0.0508 -0.3657
    1W        W57175  26.729   6.635   9.000  0.2200  0.0153 -0.2736
    1W        W57176  27.303  29.065   2.164 -0.1409 -0.0759  0.0590
    1W        W57177  15.197   0.327   7.896  0.0025 -0.2717  0.0915
    1W        W57178  25.730   3.714   6.494  0.3133 -0.1132  0.1320
    1W        W57179   0.581   4.287   7.522 -0.0978  0.0550 -0.0209
    1W        W57180  13.132  13.142   7.092  0.0505 -0.2859 -0.4369
    1W        W57181  20.590  23.806   0.374  0.1347  0.0100  0.1468
    1W        W57182  25.334  26.549   0.479  0.2254  0.2268 -0.1227
    1W        W57183  17.582  23.920   0.181  0.1876 -0.0026  0.0757
    1W        W57184  13.543  16.815   8.858  0.1753 -0.0667  0.0893
    1W        W57185  21.359  16.913   0.857 -0.0082  0.1866  0.0969
    1W        W57186  24.009   4.788   2.321  0.1692 -0.1867  0.0331
    1W        W57187  10.447  15.810   2.247 -0.0107  0.0117  0.0212
    1W        W57188  13.433   0.127   2.896  0.0196 -0.1123  0.0188
    1W        W57189  11.392  20.061   8.165 -0.2824  0.0026  0.0146
    1W        W57190   2.276  27.492   2.634  0.0171  0.2499  0.0593
    1W        W57191   3.182  22.667   6.796 -0.4615 -0.1354  0.0654
    1W        W57192  25.775  29.349   2.323 -0.1579  0.2383 -0.0503
    1W        W57193   3.457  18.018   9.623  0.1873 -0.0874  0.0856
    1W        W57194  18.821   1.345   9.501 -0.0151  0.0200 -0.1062
    1W        W57195   4.143  14.401   6.641 -0.1191 -0.0564  0.0615
    1W        W57196  18.238  13.588   1.007 -0.0979 -0.1712  0.3911
    1W        W57197   8.307   6.552   8.595 -0.0643 -0.0356 -0.0697
    1W        W57198   0.283   0.025   2.727  0.2111  0.0612 -0.3723
    1W        W57199  26.594  13.689   2.105 -0.1887  0.2224  0.1199
    1W        W57200   7.028  18.202   9.099 -0.1170 -0.2912  0.1457
    1W        W57201   1.090  24.758   2.813 -0.2282 -0.1966  0.2220
    1W        W57202  26.439   6.388   9.572 -0.2589 -0.1080 -0.0636
    1W        W57203   7.470  28.850   8.631  0.0071  0.3958  0.1318
    1W        W57204   1.467  17.167   2.045  0.2565 -0.1878  0.0445
    1W        W57205   0.678  23.354   0.931 -0.2272 -0.2669 -0.0937
    1W        W57206  23.109  25.318   2.046  0.2403 -0.1105  0.0153
    1W        W57207   6.149  21.666   1.616 -0.0481  0.3908  0.3312
    1W        W57208  22.618   1.532   9.354 -0.0334 -0.2089  0.0827
    1W        W57209   9.392  28.084   7.895 -0.0197  0.2022 -0.0574
    1W        W57210   6.003  10.890   7.827 -0.2777 -0.2269 -0.1754
    1W        W57211  10.047   4.565   3.756 -0.1338  0.1709 -0.1606
    1W        W57212   1.110  28.212   2.381 -0.0873  0.2561 -0.1333
    1W        W57213  29.242   2.642   9.690  0.5398  0.0635  0.0927
    1W        W57214  14.129   3.428   0.380 -0.0811 -0.0590 -0.1443
    1W        W57215  28.513  15.229   8.283  0.1627  0.0007 -0.3040
    1W        W57216   0.513  18.486   8.557 -0.2493 -0.2330  0.0441
    1W        W57217  23.312  23.336   2.104 -0.1325  0.0866  0.2428
    1W        W57218   6.661   7.245   2.353 -0.2077 -0.1508 -0.1010
    1W        W57219  23.623  22.955   0.951 -0.1103 -0.3504  0.2093
    1W        W57220  23.277  15.743   1.511  0.1242 -0.0719 -0.1009
    1W        W57221  12.566  27.535   9.012 -0.1184  0.2362 -0.4361
    1W        W57222  26.206  20.509   1.238 -0.1943 -0.2080  0.0092
    1W        W57223  21.347   7.904   7.752  0.2326  0.0829 -0.1364
    1W        W57224  27.445  11.420   0.460 -0.2229 -0.0289  0.1332
    1W        W57225  16.872   4.163   2.479  0.0400 -0.0056  0.0326
    1W        W57226   6.832  21.231   2.403  0.0788  0.0259  0.0535
    1W        W57227  18.289  29.237   6.583 -0.1126 -0.0574  0.1164
    1W        W57228   0.356  20.499   7.649 -0.1327 -0.2258 -0.2617
    1W        W57229  23.087   9.987   1.271  0.1523 -0.1080 -0.3255
    1W        W57230   2.465  14.748   2.092 -0.0772 -0.1081  0.0039
    1W        W57231  16.719  27.029   1.438  0.3273  0.1488 -0.0374
    1W        W57232   3.605   5.403   1.809  0.0515  0.1141 -0.1536
    1W        W57233  12.088   0.490   2.019  0.1585 -0.0287  0.0222
    1W        W57234   4.245  20.919   2.023 -0.0443  0.1752  0.0409
    1W        W57235  10.772   0.032   3.098  0.1313 -0.0763  0.1472
    1W        W57236  20.430  13.721   0.951 -0.0646  0.0641 -0.0268
    1W        W57237   2.281  26.938   7.318  0.0232 -0.1045  0.0250
    1W        W57238  12.501   9.899   9.590 -0.2872 -0.0684 -0.1030
    1W        W57239   1.902   9.743   7.595 -0.1342  0.1225 -0.1047
    1W        W57240   4.712   6.270   9.547 -0.0036 -0.0071  0.4347
    1W        W57241   3.148   6.494   1.414  0.1514 -0.4099 -0.1287
    1W        W57242  24.931  20.284   2.764  0.1944 -0.2378 -0.1516
    1W        W57243  15.760   1.215   9.416  0.0448 -0.0482 -0.1027
    1W        W57244  17.425  26.250   7.101 -0.1069  0.3489 -0.1288
    1W        W57245   8.393  27.052   7.796  0.3055 -0.3448 -0.1844
    1W        W57246  17.412  14.747   9.122  0.2903 -0.1363  0.0297
    1W        W57247   4.547  21.159   1.702  0.3501  0.0159 -0.0321
    1W        W57248  16.643  13.958   7.694  0.1039 -0.2121 -0.1666
    1W        W57249  16.637  27.205   0.968 -0.1391  0.0876  0.6132
    1W        W57250   2.083   0.971   7.707  0.0395  0.0627 -0.2593
    1W        W57251   2.071  16.350   8.370 -0.1433  0.1650  0.0311
    1W        W57252   2.064   5.809   0.451  0.2554 -0.0698 -0.0117
    1W        W57253   2.501  12.745   2.871 -0.0200  0.2012  0.0557
    1W        W57254   9.762   5.987   8.368 -0.0488 -0.0612  0.1764
    1W        W57255  27.867  18.155   3.050  0.2036  0.0347 -0.1483
    1W        W57256  22.701  13.822   8.828  0.0788  0.3246 -0.0479
    1W        W57257  24.296  21.742   2.510 -0.0233 -0.0487  0.1087
    1W        W57258  23.601  21.889   0.479  0.1832 -0.2188 -0.2328
    1W        W57259  22.537   6.491   2.882  0.1683 -0.1025  0.3444
    1W        W57260   7.698  25.844   7.222 -0.1443  0.0133 -0.1083
    1W        W57261  27.504   4.158   7.418  0.0223  0.1068 -0.2404
    1W        W57262   2.660  12.769   0.704 -0.0751 -0.1641 -0.1732
    1W        W57263   3.446  24.476   8.700  0.2757 -0.0775 -0.3975
    1W        W57264  24.323  14.278   0.969  0.0078  0.0133 -0.0268
    1W        W57265  25.660  28.654   9.085  0.2258 -0.0946  0.0290
    1W        W57266   8.034   4.918   0.216 -0.0845 -0.3373  0.1818
    1W        W57267  21.265   5.193   6.652 -0.0161 -0.1774  0.0263
    1W        W57268  12.284  21.542   8.989 -0.0799  0.1381  0.0139
    1W        W57269   3.056  10.919   8.631  0.0418  0.0763  0.0505
    1W        W57270  22.160   7.578   2.377  0.1388  0.1354  0.3198
    1W        W57271  25.923  13.030   0.188  0.1290 -0.1654 -0.1958
    1W        W57272  12.105   6.673   0.796  0.2391 -0.0096 -0.3480
    1W        W57273  26.684  11.810   6.796  0.3360  0.0118 -0.0696
    1W        W57274  16.306   8.183   3.598 -0.1542 -0.3012  0.1320
    1W        W57275   4.841  22.940   9.262  0.4378 -0.1333  0.0254
    1W        W57276  25.866  26.981   2.544 -0.0007  0.0803  0.2622
    1W        W57277  11.121  22.966   0.141  0.0558 -0.2194 -0.4167
    1W        W57278  23.133  13.048   7.929 -0.0204 -0.0062  0.0451
    1W        W57279  24.724  29.039   2.611 -0.2659  0.0813  0.1764
    1W        W57280   0.654   3.516   1.218  0.1444 -0.2102  0.0037
    1W        W57281   0.910  11.671   6.979  0.1062  0.1109  0.1984
    1W        W57282   1.161  22.744   5.958  0.4343  0.3111  0.0193
    1W        W57283  27.547  15.433   8.001  0.0292  0.0112  0.0561
    1W        W57284   7.983  25.320   0.834  0.2959  0.0380 -0.0800
    1W        W57285  11.469  27.756   2.670 -0.1511  0.0481  0.2415
    1W        W57286  22.068  28.801   9.324  0.3237  0.1625  0.1994
    1W        W57287  17.549  24.607   8.436 -0.0563  0.1431 -0.3320
    1W        W57288   4.441   3.627   0.538  0.3247  0.2575 -0.4858
    1W        W57289  21.748  21.041   2.506  0.2062 -0.3969  0.0626
    1W        W57290   8.744  24.608   9.562  0.3291  0.0337  0.0645
    1W        W57291  27.270   0.504   8.300  0.1327 -0.0956 -0.0844
    1W        W57292   2.550   7.064   2.565 -0.0793  0.0275 -0.1712
    1W        W57293  12.758  11.527   0.265  0.0236 -0.1339  0.2664
    1W        W57294  19.186  16.026   8.517 -0.0802 -0.0971 -0.1813
    1W        W57295  28.804  19.639   2.467  0.2313 -0.1225 -0.2200
    1W        W57296   2.865   6.964   8.711 -0.1552 -0.5181 -0.3436
    1W        W57297   1.683  10.450   8.687  0.0067  0.1680  0.0699
    1W        W57298  19.738   9.845   2.406  0.2458  0.2016 -0.0616
    1W        W57299  17.883   6.435   8.702  0.1036  0.1152 -0.2141
    1W        W57300  13.629   9.834   2.146  0.4272 -0.0100  0.1201
    1W        W57301   0.531   2.785   8.732 -0.0869  0.4425  0.0194
    1W        W57302  28.283  16.657   0.151 -0.0248  0.2509 -0.1007
    1W        W57303   0.438  20.301   9.214 -0.2085 -0.1832 -0.2544
    1W        W57304   9.271   7.651   7.975  0.0828 -0.2374  0.0747
    1W        W57305   9.248  10.916   1.687  0.0868 -0.0376  0.2820
    1W        W57306  11.068   5.798   0.480 -0.0372 -0.2432 -0.2186
    1W        W57307  15.828  27.332   1.536 -0.2395  0.0089  0.3776
    1W        W57308  16.409  25.052   1.389 -0.1676  0.3618  0.2488
    1W        W57309  17.888  19.757   7.510  0.0864  0.0418  0.2297
    1W        W57310  10.323   7.664   1.591  0.0032  0.0202  0.2208
    1W        W57311   5.180   0.131   1.335 -0.0225  0.1317 -0.1351
    1W        W57312  24.621   1.155   7.166 -0.1429 -0.3040  0.2876
    1W        W57313   6.096   7.569   0.761 -0.3669  0.1780 -0.2920
    1W        W57314  26.407  12.775   1.992  0.4131 -0.0083  0.2373
    1W        W57315  13.625  28.058   1.453  0.0347 -0.2468 -0.2455
    1W        W57316  13.026  22.033   7.639 -0.2483  0.0129  0.2303
    1W        W57317   6.036  21.085   0.847 -0.0707  0.4360  0.1800
    1W        W57318   3.287  25.534   6.875  0.0051  0.4730 -0.0271
    1W        W57319   6.921  14.110   8.517  0.0425 -0.1407  0.0831
    1W        W57320  25.318  11.661   8.354  0.1437 -0.2586 -0.2713
    1W        W57321  25.457  25.160   9.484  0.0103 -0.3200 -0.1352
    1W        W57322  23.244  22.430   0.245 -0.3306 -0.2475  0.1116
    1W        W57323  16.892  29.022   0.951 -0.0447  0.0601  0.0035
    1W        W57324  16.961   5.653   3.868 -0.2484  0.2157  0.1534
    1W        W57325  21.224  12.802   9.232 -0.2007  0.0100  0.1609
    1W        W57326  29.256  13.578   9.350  0.1798  0.1697 -0.1756
    1W        W57327  26.581  24.314   0.192 -0.1217 -0.0058 -0.0517
    1W        W57328  10.836  22.628   9.238  0.2424 -0.0991  0.1557
    1W        W57329   6.529  26.233   3.637  0.0131  0.4665 -0.0077
    1W        W57330  14.969  15.494   8.854  0.1155 -0.0947  0.4328
    1W        W57331  28.681  13.024   8.342  0.1613 -0.4146  0.3001
    1W        W57332   2.401  11.120   8.092 -0.1791  0.1059 -0.0921
    1W        W57333  28.521  18.032   0.333  0.2951 -0.0474  0.0708
    1W        W57334  11.668  11.102   0.322  0.2093  0.2371 -0.0395
    1W        W57335  19.908  27.692   2.583 -0.0971 -0.3479 -0.0500
    1W        W57336  13.131  16.816   7.011  0.1251 -0.0216 -0.1049
    1W        W57337   5.821  25.654   7.614  0.1298 -0.3581 -0.0105
    1W        W57338   5.136  23.484   7.700 -0.0295  0.0115 -0.0684
    1W        W57339  21.209  22.797   6.088  0.0172  0.0882 -0.2852
    1W        W57340  18.964  10.121   8.681  0.1186  0.0627  0.1053
    1W        W57341  20.612  21.107   8.013  0.1541  0.0256  0.2101
    1W        W57342  15.549  13.460   2.074  0.3280 -0.0900  0.2756
    1W        W57343  25.747   0.441   8.307 -0.1331 -0.2458 -0.0859
    1W        W57344  11.642  26.763   8.181  0.3374  0.0060  0.0854
    1W        W57345   3.940  19.599   8.196  0.3008 -0.1769  0.1643
    1W        W57346  13.758  17.495   8.075 -0.0533 -0.0435  0.1947
    1W        W57347  23.176   9.630   1.988 -0.0478 -0.0208  0.1305
    1W        W57348  25.229  19.874   6.985  0.0125 -0.0210 -0.0730
    1W        W57349   7.358  20.458   6.079  0.0509 -0.3452 -0.0862
    1W        W57350  20.064  20.321   9.362  0.1011  0.1097 -0.2223
    1W        W57351  16.514   9.834   7.777  0.1190  0.0135 -0.0209
    1W        W57352   1.182  13.618   1.855  0.2303 -0.0973 -0.3086
    1W        W57353  22.803   6.777   6.527 -0.2038  0.0582  0.1651
    1W        W57354  29.014   9.415   6.617 -0.2745  0.0221 -0.1889
    1W        W57355  24.336  17.847   8.967  0.0009  0.0902  0.1615
    1W        W57356   3.211  12.084   9.631  0.1325  0.1734 -0.0452
    1W        W57357  10.421  21.643   0.968 -0.2075  0.1354 -0.0478
    1W        W57358  18.874  15.906   2.625  0.1036  0.1383  0.0718
    1W        W57359  12.976  20.518   1.726 -0.1128  0.2466  0.1027
    1W        W57360   5.697  17.761   9.073 -0.1740 -0.2182  0.0980
    1W        W57361  14.067  13.344   1.941 -0.0418  0.0930  0.1514
    1W        W57362   6.336   5.311   6.946 -0.1441 -0.0316 -0.4377
    1W        W57363   9.804   4.706   8.209 -0.1052 -0.0837 -0.4411
    1W        W57364   8.571  13.216   7.870  0.0517  0.0306 -0.2981
    1W        W57365  20.859   8.931   9.036 -0.3082  0.1832 -0.0061
    1W        W57366   2.372  20.760   6.349 -0.1622 -0.1516  0.1093
    1W        W57367  26.747  28.399   2.085  0.0780  0.0852 -0.3449
    1W        W57368  20.818  22.049   8.281  0.3069 -0.0059 -0.0281
    1W        W57369  15.017  23.438   6.257 -0.0377  0.0054  0.4238
    1W        W57370   1.845  11.737   6.166  0.0951 -0.2206  0.2979
    1W        W57371   3.923  12.651   0.391  0.1299 -0.1080 -0.0128
    1W        W57372  26.025  21.484   7.988 -0.0603  0.2030  0.2249
    1W        W57373   2.546  23.027   7.301  0.2457 -0.3864 -0.0245
    1W        W57374   7.161   4.719   1.457 -0.0731  0.2754  0.0818
    1W        W57375   5.381  16.519   9.082 -0.0814  0.0792 -0.1708
    1W        W57376  15.873  17.712   0.680  0.1135 -0.3380 -0.1980
    1W        W57377  26.665  14.448   8.701  0.2068 -0.0113 -0.1786
    1W        W57378  21.779   5.562   9.042  0.1679  0.0932 -0.0259
    1W        W57379  28.796  16.019   6.873 -0.0640  0.0488  0.1138
    1W        W57380  11.135  14.865   7.944 -0.0435 -0.0414  0.0922
    1W        W57381   8.959  15.692   8.386 -0.0086 -0.2653 -0.1278
    1W        W57382  10.487  22.859   8.739 -0.1294  0.1839 -0.0544
    1W        W57383  25.698  26.605   6.417  0.0230  0.0189 -0.0753
    1W        W57384  24.721  24.353   2.783  0.0767 -0.1685  0.2379
    1W        W57385   0.495   5.451   5.935 -0.1691 -0.4137 -0.2429
    1W        W57386   9.225   1.377   8.067 -0.1351  0.3343 -0.0343
    1W        W57387  14.442  16.913   6.947 -0.1461  0.1365 -0.1771
    1W        W57388   4.208  13.046   1.095  0.0722 -0.0485  0.3313
    1W        W57389  12.962   7.827   3.040 -0.0862 -0.0452  0.0964
    1W        W57390  23.359  26.611   1.039  0.1184  0.0768  0.0894
    1W        W57391  27.629  12.486   2.426  0.1342 -0.1421  0.2226
    1W        W57392   8.706  15.174   9.631 -0.2030  0.1721  0.1742
    1W        W57393  16.148   2.076   0.102 -0.0326 -0.0292  0.1969
    1W        W57394   1.798   6.766   5.804 -0.0185 -0.0941 -0.0870
    1W        W57395   0.023  20.044   8.308  0.1220 -0.0523 -0.0398
    1W        W57396  20.739  23.235   1.330 -0.3427 -0.2199 -0.0911
    1W        W57397  16.154   0.828   1.326 -0.2616  0.0761  0.0287
    1W        W57398  29.041  28.526   1.784 -0.0856 -0.1923 -0.0673
    1W        W57399   4.461  29.037   8.483 -0.0996 -0.0088  0.2303
    1W        W57400   4.314   1.113   1.175 -0.1973 -0.0019 -0.0562
    1W        W57401   2.788  27.886   8.751  0.0399  0.2134  0.3976
    1W        W57402   9.060  17.035   1.294  0.1456  0.0974 -0.1554
    1W        W57403  23.700  24.193   8.775 -0.2404  0.2053  0.0768
    1W        W57404  28.799   6.165   9.407  0.1404  0.2965  0.1392
    1W        W57405  11.346  28.998   8.237 -0.1245  0.0363 -0.0679
    1W        W57406  27.727  17.104   1.409  0.5236  0.2290 -0.3130
    1W        W57407  21.527  26.092   6.443 -0.2087 -0.0547 -0.3358
    1W        W57408   0.799  20.892   0.102  0.2427  0.1482  0.0693
    1W        W57409   2.231  20.669   7.194 -0.0175  0.0861 -0.0224
    1W        W57410  26.782   6.095   9.180 -0.1682 -0.2598 -0.0943
    1W        W57411   4.447  10.957   7.112 -0.0986 -0.2972 -0.2071
    1W        W57412  26.693  10.372   1.661  0.0398  0.1843  0.0276
    1W        W57413  25.787  20.608   9.431  0.0686 -0.0726 -0.0243
    1W        W57414   9.797  17.794   9.115 -0.1386  0.1207  0.2064
    1W        W57415   5.031  27.367   9.225  0.1656  0.0496  0.0787
    1W        W57416   8.569  20.158   2.041  0.0416 -0.1067  0.0433
    1W        W57417  20.632  23.485   7.074 -0.1361  0.2465 -0.2159
    1W        W57418  21.130   4.214   0.751 -0.1291  0.0365  0.0212
    1W        W57419   7.813   2.309   8.142  0.3666  0.0368 -0.0159
    1W        W57420  13.576  23.362   6.168 -0.1397  0.1133  0.0412
    1W        W57421  15.025  17.191   7.912  0.2604 -0.1705 -0.1540
    1W        W57422  27.021  17.402   6.100 -0.1760 -0.1567  0.0070
    1W        W57423  10.509  26.397   9.429 -0.0919  0.0553  0.1427
    1W        W57424  28.012   4.668   1.317 -0.2972  0.2442  0.0270
    1W        W57425   7.037  22.126   7.085  0.0429 -0.0406  0.0114
    1W        W57426   8.290  21.123   2.471  0.1180 -0.0812 -0.1200
    1W        W57427   7.661  14.179   7.673  0.0653  0.2234 -0.0009
    1W        W57428  18.925   3.591   7.469  0.1013  0.2038  0.2970
    1W        W57429  17.428   5.682   9.368  0.0672  0.0103  0.1287
    1W        W57430  17.420  21.934   1.688 -0.1029 -0.0642  0.0098
    1W        W57431  21.044  23.094   0.473  0.0222 -0.0256 -0.1558
    1W        W57432   2.360  18.643   9.298 -0.0256 -0.0050  0.5156
    1W        W57433   8.489   2.626   7.819 -0.0401  0.0703  0.0861
    1W        W57434  17.400   6.369   1.181 -0.0462  0.1081  0.2448
    1W        W57435  21.020  18.085   9.269 -0.3569  0.2521  0.0573
    1W        W57436   2.049  15.249   1.129  0.0914 -0.1779  0.0094
    1W        W57437  17.518  29.285   0.447 -0.2712  0.0289 -0.0419
    1W        W57438  24.663   9.046   0.634  0.0842 -0.1482 -0.1198
    1W        W57439  25.906  24.941   8.615 -0.1794  0.2190  0.0176
    1W        W57440   6.829   2.462   1.921 -0.3143 -0.2250  0.1005
    1W        W57441   1.625   8.946   1.087 -0.0781  0.1556 -0.2379
    1W        W57442  13.754  18.776   1.042 -0.1123 -0.0551  0.2267
    1W        W57443  11.740  27.693   3.494 -0.3258  0.2086  0.1966
    1W        W57444  20.284  10.760   8.455  0.4706  0.3065  0.0758
    1W        W57445  12.585  20.773   0.908 -0.1595  0.2607 -0.3156
    1W        W57446  12.145  22.472   3.067 -0.2430  0.1286  0.1360
    1W        W57447   8.209  12.098   1.635 -0.4618 -0.0058  0.1773
    1W        W57448   0.048  20.553   0.728  0.0728  0.2255 -0.2745
    1W        W57449  10.385  12.548   1.882  0.0711  0.3152  0.0658
    1W        W57450   8.164   1.258   9.341 -0.2700 -0.0421  0.4185
    1W        W57451  20.297   8.373   0.713  0.4318  0.1472 -0.1735
    1W        W57452  24.099   5.681   9.582  0.2485  0.0439  0.1929
    1W        W57453  14.724  14.609   1.121  0.1165 -0.2864  0.2314
    1W        W57454  28.758  23.984   8.658 -0.3144  0.0324  0.1357
    1W        W57455   1.604   1.442   3.282  0.0417  0.0582  0.1669
    1W        W57456   4.854  26.705   6.451 -0.2132  0.2872  0.1104
    1W        W57457   0.600   5.349   8.293 -0.3497 -0.1390 -0.3046
    1W        W57458  28.576  18.058   7.551 -0.0985 -0.1057  0.4028
    1W        W57459  11.015   0.531   0.716 -0.1699 -0.3360  0.0521
    1W        W57460  18.579  14.282   9.558  0.2731 -0.2711 -0.0534
    1W        W57461   2.279  29.057   3.215 -0.2776 -0.3654  0.0512
    1W        W57462  12.137  12.918   7.763  0.2098  0.0908  0.0061
    1W        W57463  26.763  27.075   1.215 -0.0323  0.0605  0.0221
    1W        W57464   1.698  21.639   6.055  0.0186  0.1084  0.2459
    1W        W57465  25.682   5.529   7.225  0.0105 -0.0076  0.0452
    1W        W57466  17.782   7.341   8.131 -0.1742 -0.3112 -0.4034
    1W        W57467   3.812   0.073   6.520  0.2072  0.3028 -0.0016
    1W        W57468  15.779   2.413   0.507  0.2185 -0.2709 -0.1017
    1W        W57469   8.141  11.498   1.205 -0.0482 -0.2643 -0.0233
    1W        W57470  28.128  10.895   7.842 -0.0567 -0.1148 -0.5381
    1W        W57471  20.730   9.608   7.666 -0.1146  0.1824 -0.2428
    1W        W57472  26.403   4.258   9.001 -0.3473 -0.1772  0.0654
    1W        W57473  28.017  26.316   1.502 -0.2802  0.3347 -0.2631
    1W        W57474   6.884  15.134   1.664 -0.0743 -0.0999 -0.1887
    1W        W57475   6.944  24.630   0.648 -0.2739  0.1292  0.3189
    1W        W57476  13.551   9.021   7.786  0.2187  0.0221 -0.0403
    1W        W57477  23.386   3.014   7.566  0.1319  0.0258 -0.0343
    1W        W57478  12.989  10.152   0.718  0.0702 -0.2108 -0.0392
    1W        W57479   7.908  14.289   0.839 -0.0124  0.1517  0.4345
    1W        W57480  28.076  19.103   6.515 -0.2828  0.0952  0.0567
    1W        W57481  20.043   0.162   1.645  0.0966 -0.1515 -0.2810
    1W        W57482  28.467  12.479   0.732 -0.1263 -0.1630  0.1004
    1W        W57483  18.756  22.873   2.410  0.1569 -0.0584 -0.0317
    1W        W57484  23.435   9.900   9.642  0.0896  0.1104  0.1466
    1W        W57485  28.795   5.351   1.601 -0.0330  0.4652  0.0887
    1W        W57486   8.125  24.398   7.894 -0.0073  0.2989 -0.2043
    1W        W57487  10.977   1.230   2.291  0.0147 -0.0003  0.2372
    1W        W57488  18.933  28.727   2.853 -0.0218 -0.1312  0.1270
    1W        W57489  23.373  13.723   0.512  0.0638  0.1933  0.2115
    1W        W57490  28.853   9.461   0.055  0.1029  0.2074 -0.1633
    1W        W57491   7.110   2.766   6.834  0.1079  0.0350  0.3746
    1W        W57492  22.754  14.474   8.078 -0.0542 -0.0710  0.4682
    1W        W57493  16.711   1.689   8.022 -0.0075  0.0343  0.0780
    1W        W57494  14.415  16.675   7.464 -0.1247 -0.2271  0.2653
    1W        W57495   3.292   8.266   1.099  0.1090 -0.0695 -0.2597
    1W        W57496  16.983  22.134   3.064 -0.3771 -0.0199 -0.2597
    1W        W57497  28.136  25.597   1.869 -0.1205 -0.1671  0.0495
    1W        W57498  13.404  14.867   0.952  0.3004  0.2194  0.2761
    1W        W57499   2.453   8.294   9.224 -0.2856  0.0908  0.0303
    1W        W57500  14.331  21.166   7.629 -0.0825  0.0915 -0.2127
    1W        W57501  15.629  15.936   7.596  0.1430 -0.1958  0.1396
    1W        W57502  17.155  26.903   2.814 -0.1923  0.2501  0.0195
    1W        W57503   2.424  10.279   1.965  0.1055  0.2083 -0.2788
    1W        W57504   5.133  28.192   1.482  0.0661  0.0110  0.0645
    1W        W57505  16.600  25.418   2.025 -0.4161  0.0553 -0.1309
    1W        W57506  22.941   2.725   1.650  0.2206  0.1437 -0.0543
    1W        W57507  13.870   3.874   2.272 -0.4629  0.1471 -0.1974
    1W        W57508  27.447   7.246   0.231  0.0893  0.0307  0.0167
    1W        W57509  26.362   4.068   5.805 -0.1108  0.1444 -0.1123
    1W        W57510   6.732   5.997   8.268 -0.0012  0.2098 -0.2004
    1W        W57511  26.025  21.372   1.248  0.0977  0.6192 -0.0459
    1W        W57512  23.618  15.062   7.031  0.0938 -0.0054 -0.0318
    1W        W57513  28.135  21.386   7.119  0.1847 -0.0881 -0.1621
    1W        W57514   2.106  18.145   6.814  0.0914 -0.2147  0.4965
    1W        W57515  11.341  15.510   0.544  0.0575  0.1248 -0.0199
    1W        W57516   0.060  15.601   8.391  0.2360 -0.0975 -0.0538
    1W        W57517  13.531   8.709   8.298  0.2785  0.0598 -0.2211
    1W        W57518  25.681   0.907   5.890  0.2400 -0.0893  0.0792
    1W        W57519  21.671  11.622   9.243 -0.0335  0.1899 -0.1876
    1W        W57520  15.007   1.451   8.198  0.1819 -0.2668 -0.0517
    1W        W57521  23.524   3.178   6.761  0.0724 -0.0163  0.0954
    1W        W57522  10.074  23.796   7.412  0.1014 -0.0371  0.1619
    1W        W57523  25.816  19.352   9.240  0.0259  0.1090  0.0375
    1W        W57524  10.854  11.504   0.152  0.0537  0.5762 -0.0626
    1W        W57525   5.954  18.715   6.458  0.2127 -0.6142  0.0562
    1W        W57526   6.267   9.043   8.828  0.0694 -0.0467  0.0246
    1W        W57527  10.088   8.506   2.027  0.1406 -0.1569  0.2178
    1W        W57528   1.662  21.391   6.795 -0.2798  0.1184 -0.0687
    1W        W57529   7.235   1.797   0.535 -0.0216  0.3178 -0.0011
    1W        W57530   6.508  10.268   8.103 -0.4261 -0.1764 -0.2639
    1W        W57531  20.287   3.601   7.442 -0.3963 -0.2585 -0.3315
    1W        W57532  11.850  16.137   1.534 -0.3843  0.1427 -0.0291
    1W        W57533  28.651   9.617   2.190  0.0747 -0.0318  0.0319
    1W        W57534  20.698   1.817   1.216 -0.0287 -0.0183 -0.0477
    1W        W57535   4.129  24.169   7.386  0.0570 -0.1050 -0.0871
    1W        W57536   6.802  14.062   0.225  0.0338  0.0414  0.1720
    1W        W57537   1.862  10.040   1.799 -0.1316 -0.2073 -0.0876
    1W        W57538  21.800  14.754   0.055 -0.0465 -0.2171 -0.2330
    1W        W57539  27.003  27.416   2.896 -0.0458 -0.3420  0.0258
    1W        W57540   7.321  20.838   7.115  0.0144  0.0761 -0.2644
    1W        W57541  13.249  21.920   3.211 -0.0487  0.1383 -0.0385
    1W        W57542   3.072  16.590   8.309  0.0996  0.0635 -0.1787
    1W        W57543  21.692  15.409   0.165  0.1433  0.1000 -0.2417
    1W        W57544  12.192  25.561   1.127 -0.1292  0.1143  0.2048
    1W        W57545   5.423  26.850   6.983  0.0760 -0.0479  0.2878
    1W        W57546   6.836   7.261   7.346  0.0452  0.2180 -0.0945
    1W        W57547  12.386  26.040   2.130  0.0843 -0.0976  0.0357
    1W        W57548   5.602  18.216   8.789  0.1300 -0.0719  0.0728
    1W        W57549   8.836  15.733   8.967 -0.1569 -0.0320  0.1227
    1W        W57550  10.967   4.591   0.827  0.0044 -0.1166  0.3050
    1W        W57551  10.371   7.661   9.210  0.1099  0.0010 -0.0659
    1W        W57552   0.392   4.487   6.371 -0.2867  0.4497  0.0541
    1W        W57553   2.816  24.951   1.092 -0.0898 -0.2481 -0.0038
    1W        W57554   8.803   5.793   8.485  0.0134  0.1619  0.2272
    1W        W57555  13.510  13.385   1.718 -0.2278  0.0270 -0.2022
    1W        W57556   2.290  13.361   9.296 -0.0604  0.1962  0.2024
    1W        W57557   8.497  27.542   9.477 -0.3102  0.1729  0.1330
    1W        W57558   6.373  11.369   0.624 -0.2152 -0.1192  0.1124
    1W        W57559  26.011   9.088   7.616  0.0274 -0.4976 -0.1326
    1W        W57560  20.072  18.783   2.058  0.0199 -0.0869  0.2271
    1W        W57561  15.268  18.502   7.503  0.0767  0.0843  0.0837
    1W        W57562   8.632  29.348   7.922 -0.1952  0.0849  0.1322
    1W        W57563  12.719   9.415   2.329 -0.0610 -0.1970 -0.0273
    1W        W57564  13.569  16.958   1.076  0.1047 -0.3863  0.0209
    1W        W57565  28.515   0.371   0.434  0.0219  0.0217 -0.1078
    1W        W57566   8.148  13.054   2.340  0.0299  0.0150 -0.1723
    1W        W57567  22.855   5.277   8.870  0.2790  0.2850 -0.0023
    1W        W57568  26.658   6.052   8.318 -0.3255  0.0909  0.1225
    1W        W57569  28.106  18.560   6.346 -0.1018 -0.0066  0.0111
    1W        W57570  27.701   6.490   8.239  0.0405  0.1289 -0.0094
    1W        W57571  12.947  13.642   2.148 -0.1712  0.0254 -0.0802
    1W        W57572  26.609  11.885   7.653 -0.1183  0.2315 -0.2855
    1W        W57573  15.459  18.581   1.965 -0.1905  0.1200 -0.2917
    1W        W57574  27.075  16.785   5.724  0.1273 -0.0342 -0.0997
    1W        W57575  16.122  22.710   2.465 -0.0241  0.1029 -0.1904
    1W        W57576  13.318  13.886   8.856  0.2366  0.0214 -0.0262
    1W        W57577  18.625   4.530   1.027  0.1110  0.1011  0.0566
    1W        W57578  28.043  19.921   8.142 -0.1529  0.0790 -0.0631
    1W        W57579  21.838   1.556   2.605 -0.1892  0.0624  0.3184
    1W        W57580   9.142  11.706   9.488  0.0352 -0.1633 -0.3955
    1W        W57581  14.235   2.879   7.544  0.1415 -0.1191 -0.1758
    1W        W57582  15.110  14.734   7.245 -0.1314 -0.0435 -0.2532
    1W        W57583   9.122  13.177   0.505 -0.0799 -0.2594  0.1074
    1W        W57584   8.912  21.098   8.187 -0.2579  0.0661 -0.0476
    1W        W57585   2.993   2.068   7.380 -0.2915 -0.2053  0.1401
    1W        W57586   0.352   5.730   7.251 -0.1843  0.1690 -0.1416
    1W        W57587  22.212  14.569   1.115  0.1506  0.0138  0.1723
    1W        W57588  18.843  28.618   8.734  0.1387 -0.0006  0.3891
    1W        W57589  24.305   3.762   8.274 -0.1427  0.2316 -0.0018
    1W        W57590  28.976   5.812   2.576  0.1962 -0.1691 -0.2032
    1W        W57591   6.442  19.730   0.571  0.0806  0.2550  0.0669
    1W        W57592  28.178  15.316   9.593 -0.0218  0.1259  0.0944
    1W        W57593   0.147  16.006   6.615 -0.1732  0.0245 -0.1085
    1W        W57594  20.380  13.070   7.681 -0.1078 -0.0608  0.1293
    1W        W57595  20.645   0.234   2.622 -0.0982 -0.2117  0.2425
    1W        W57596  16.505  18.844   2.212 -0.0295 -0.0235  0.0536
    1W        W57597   8.895  14.418   1.638 -0.4524 -0.0291  0.4243
    1W        W57598   5.579  22.369   9.393 -0.3047 -0.0403 -0.2020
    1W        W57599  21.656   8.954   9.523  0.1277 -0.2873 -0.1701
    1W        W57600  17.876  21.440   9.602 -0.1399 -0.1313  0.0456
    1W        W57601  12.007   0.141   8.045  0.0822  0.0585  0.2270
    1W        W57602  12.179   3.359   8.492 -0.2257 -0.0645  0.4671
    1W        W57603  22.940   7.767   9.391 -0.0001 -0.1051 -0.0994
    1W        W57604   4.984   5.785   7.455 -0.1755 -0.3027  0.2299
    1W        W57605  13.537  11.338   1.375 -0.0451  0.1334  0.2808
    1W        W57606  23.128  27.952   8.316 -0.0093 -0.1950  0.1099
    1W        W57607  12.411  22.903   2.834 -0.1465  0.3029 -0.0539
    1W        W57608   8.195  11.613   1.718 -0.1651 -0.0928  0.0192
    1W        W57609   6.294   3.597   9.243 -0.0399 -0.1154 -0.1661
    1W        W57610   0.426  11.030   9.194  0.0030  0.2372 -0.2012
    1W        W57611  28.775   9.083   7.695 -0.0530  0.0639  0.2794
    1W        W57612  14.030  11.627   2.541  0.0374 -0.0272 -0.2547
    1W        W57613  22.490  21.619   2.730 -0.1903 -0.0977  0.1911
    1W        W57614   3.725  27.042   2.128 -0.2397 -0.2310 -0.2602
    1W        W57615  21.590  28.908   3.021 -0.0266  0.1878 -0.0433
    1W        W57616   9.911  23.632   1.483 -0.0014 -0.0230  0.0197
    1W        W57617  24.710  24.903   2.665 -0.1665 -0.1091 -0.0686
    1W        W57618   9.063  18.018   7.014  0.3018  0.0252  0.1676
    1W        W57619   4.970  28.627   1.514  0.1297 -0.4855  0.0358
    1W        W57620   6.161  14.224   8.838 -0.1205 -0.1777  0.1056
    1W        W57621  12.891  10.350   9.132 -0.2215 -0.0276  0.4699
    1W        W57622  16.239  20.677   9.275  0.1973 -0.0461  0.0755
    1W        W57623  11.410  25.832   0.630 -0.0363  0.1200 -0.0880
    1W        W57624   9.301  12.384   2.639 -0.2095  0.0759  0.0022
    1W        W57625  10.911  20.233   0.433  0.2640 -0.0050 -0.1734
    1W        W57626  27.245   1.697   0.652  0.1121  0.1802 -0.1101
    1W        W57627  24.141  11.063   8.163  0.0622  0.0753  0.1202
    1W        W57628  10.919  25.718   0.535  0.3177  0.1386  0.1065
    1W        W57629  12.581  21.871   8.748  0.2269 -0.1044  0.4488
    1W        W57630   3.585  13.100   1.790  0.2129  0.2187  0.1692
    1W        W57631   5.111  20.759   5.992  0.3089  0.1224  0.1165
    1W        W57632  10.365  16.433   8.898  0.2000  0.0382  0.2108
    1W        W57633   1.367  18.055   6.779 -0.2017  0.1297 -0.0968
    1W        W57634  26.880   5.064   2.120  0.0038  0.5499  0.0719
    1W        W57635   3.507   0.764   5.710 -0.1835 -0.3583 -0.2153
    1W        W57636  17.785  19.362   3.180  0.2664  0.0829  0.3175
    1W        W57637   8.790  10.269   2.921  0.1344 -0.2348 -0.0121
    1W        W57638  23.315   0.977   1.778 -0.1084  0.1428 -0.1037
    1W        W57639  11.691  26.226   7.510  0.1255  0.0085 -0.0383
    1W        W57640   1.608  25.430   3.080  0.1258  0.0477 -0.0655
    1W        W57641  14.702  24.147   2.375 -0.0067 -0.0177 -0.0959
    1W        W57642   6.370   5.222   9.313 -0.3116 -0.2215 -0.0388
    1W        W57643   9.628  13.935   2.456 -0.0953  0.1002  0.1543
    1W        W57644   5.657  22.082   0.136 -0.1423 -0.0242 -0.2424
    1W        W57645  28.450  15.150   1.541  0.2028 -0.2899  0.1393
    1W        W57646  14.283  25.329   8.441 -0.2835  0.1340 -0.1388
    1W        W57647   9.765   8.249   7.499 -0.3501  0.1812  0.0607
    1W        W57648  21.705  11.451   6.444 -0.0365  0.1231 -0.2973
    1W        W57649   6.354   9.260   6.532 -0.0557 -0.0810  0.2257
    1W        W57650  26.495   7.924   5.896 -0.1591  0.0489 -0.1140
    1W        W57651  18.006   1.994   6.710  0.0335 -0.1467  0.0988
    1W        W57652  26.883   9.524   1.385  0.2600  0.1168  0.0536
    1W        W57653  29.158  12.007   2.992  0.0024  0.3043  0.3955
    1W        W57654  14.289   5.055   2.543 -0.3132 -0.2794  0.3058
    1W        W57655  14.991  20.542   2.726 -0.1201 -0.0879  0.0100
    1W        W57656  19.595  12.961   6.415 -0.0692 -0.0856  0.0854
    1W        W57657  14.051  25.833   7.406 -0.2948 -0.0127  0.0850
    1W        W57658   3.631   9.837   1.273 -0.1895 -0.0098 -0.0440
    1W        W57659  18.584   7.794   2.227 -0.0847 -0.1337 -0.3155
    1W        W57660  23.399  12.008   1.593 -0.1347 -0.1530 -0.0514
    1W        W57661  28.643  18.701   2.034  0.3632 -0.0608 -0.0976
    1W        W57662  22.519  20.735   1.847  0.0949  0.1166 -0.2575
    1W        W57663   6.151  24.099   7.213 -0.3346  0.0686  0.1931
    1W        W57664  12.221  23.313   2.712 -0.2321 -0.1675  0.2701
    1W        W57665  23.110   3.405   9.138 -0.0879 -0.1025  0.1895
    1W        W57666   1.703   2.850   1.865 -0.0444  0.0381 -0.1861
    1W        W57667  20.246  13.419   2.068 -0.3395  0.1677  0.1626
    1W        W57668   3.868  23.323   5.486 -0.1064  0.2377  0.1351
    1W        W57669  10.425   8.382   9.626  0.0144  0.0037  0.0179
    1W        W57670   9.552  13.573   1.574 -0.2396  0.1581  0.0183
    1W        W57671  18.343  24.765   7.292 -0.0500  0.2972 -0.0440
    1W        W57672  14.513  14.741   8.386 -0.0786 -0.2238  0.1287
    1W        W57673  26.870  15.531   7.343  0.3482 -0.0472 -0.0921
    1W        W57674   2.596   6.588   9.093 -0.0943  0.1731 -0.0577
    1W        W57675  10.220  26.633   2.836  0.2903  0.3546 -0.0981
    1W        W57676   7.840   5.700   3.261  0.3252 -0.2882  0.0281
    1W        W57677  13.323  17.418   0.790  0.0996  0.1014 -0.2175
    1W        W57678  21.521   1.410   0.726  0.0982 -0.1395  0.2045
    1W        W57679  12.319  19.112   9.135 -0.0163 -0.0882 -0.1941
    1W        W57680  24.124   7.013   1.317  0.3958 -0.3140  0.2097
    1W        W57681   5.060   9.245   3.148  0.1309 -0.1098 -0.4064
    1W        W57682  11.105  14.361   7.817 -0.0097  0.1907 -0.0769
    1W        W57683  25.490  13.302   2.372 -0.0398  0.0171  0.1911
    1W        W57684   3.511  14.741   1.837 -0.0926 -0.0992  0.0772
    1W        W57685  22.949   8.827   9.336 -0.0056  0.1864 -0.3242
    1W        W57686   8.434   9.184   2.476  0.1202 -0.1279  0.1139
    1W        W57687  12.648  19.125   0.601  0.0864 -0.1133  0.3142
    1W        W57688  28.914  11.090   7.552  0.1234  0.1846 -0.0644
    1W        W57689   7.244   8.275   6.907 -0.2886  0.0299  0.0385
    1W        W57690   9.143  22.448   8.571 -0.0302 -0.1569 -0.0838
    1W        W57691  23.219  27.461   7.385 -0.0000 -0.2300 -0.0289
    1W        W57692  12.624   8.106   1.465 -0.3321  0.2576 -0.0271
    1W        W57693   8.872  11.346   8.191 -0.1981 -0.1180 -0.1858
    1W        W57694  24.911  21.791   8.740  0.2139 -0.1370 -0.2508
    1W        W57695  15.753  28.876   8.937  0.0938  0.0521 -0.0516
    1W        W57696   1.026  25.241   0.250  0.0983 -0.1856  0.1506
    1W        W57697  18.941  18.913   8.948 -0.0546  0.1373 -0.0553
    1W        W57698   5.571   7.047   6.613 -0.1411 -0.1066 -0.0753
    1W        W57699  11.717   5.793   0.500 -0.2062 -0.1583  0.0079
    1W        W57700  28.691  20.571   7.250  0.0762 -0.0844 -0.3890
    1W        W57701  29.304  11.533   0.864 -0.1569  0.0267 -0.3253
    1W        W57702  17.852   8.476   0.292 -0.0473  0.0044  0.1195
    1W        W57703   9.540  13.824   7.972 -0.3310 -0.1423 -0.0194
    1W        W57704   2.844  21.070   8.554 -0.0395 -0.0744 -0.0268
    1W        W57705  10.965  14.203   8.378 -0.0946  0.2724 -0.2744
    1W        W57706   3.150  10.974   1.345 -0.0090  0.2649 -0.0943
    1W        W57707  11.736  22.748   9.197 -0.1145  0.0361 -0.1189
    1W        W57708  17.483  21.930   0.752 -0.1622 -0.0597  0.1594
    1W        W57709  19.796   0.634   7.919 -0.2399 -0.2772 -0.1207
    1W        W57710  24.019  27.959   8.433  0.0693 -0.0027 -0.1915
    1W        W57711  20.136  11.684   8.533 -0.3621 -0.0574 -0.2654
    1W        W57712  15.806  17.711   8.321  0.1478 -0.0802  0.3522
    1W        W57713  16.525   6.752   2.620 -0.3559  0.0165  0.1925
    1W        W57714   3.625  27.893   2.141 -0.0158  0.0756 -0.0271
    1W        W57715  17.999  17.116   2.350 -0.3445 -0.0097 -0.2448
    1W        W57716  15.354  26.084   2.890 -0.1264 -0.2476 -0.1198
    1W        W57717  16.296  21.095   2.507  0.0559 -0.1395  0.2603
    1W        W57718  17.841   2.975   1.172 -0.1686 -0.0708 -0.1499
    1W        W57719  25.892  12.050   1.274  0.2359  0.0235 -0.0755
    1W        W57720  28.484   1.571   2.224  0.0894  0.0288 -0.3328
    1W        W57721  25.498  28.256   0.951  0.1345 -0.0551  0.1394
    1W        W57722   6.533  24.558   8.153 -0.0295  0.0029 -0.0713
    1W        W57723  13.741  18.240   7.027  0.1236  0.1764 -0.1062
    1W        W57724  26.043  21.512   1.718  0.0338 -0.0596 -0.3206
    1W        W57725  20.329  19.512   0.789  0.2047  0.3669 -0.0352
    1W        W57726   2.510   7.719   0.129 -0.2448  0.0003 -0.1511
    1W        W57727  15.177  28.347   8.248 -0.1873  0.1643  0.0572
    1W        W57728   9.073  17.814   2.579 -0.1645  0.1263 -0.0724
    1W        W57729   6.384  20.000   6.293  0.0523  0.0590 -0.1958
    1W        W57730  27.185   5.480   1.966  0.1370  0.2500 -0.2252
    1W        W57731   7.314   2.768   0.446 -0.0781 -0.2107 -0.1122
    1W        W57732  26.682   5.680   2.570  0.2040  0.2503 -0.2104
    1W        W57733  25.521  22.779   9.310  0.2920 -0.2146  0.2039
    1W        W57734   1.913  19.622   5.765 -0.1577  0.1456 -0.0021
    1W        W57735  19.725   5.238   8.821 -0.3904  0.0364 -0.0066
    1W        W57736  25.336   4.921   7.811  0.0217 -0.2612 -0.0502
    1W        W57737  18.027   4.221   1.096  0.0929 -0.0532 -0.1221
    1W        W57738  13.265   3.484   3.063 -0.0153 -0.0641 -0.2548
    1W        W57739   2.767   3.877   2.016  0.1050 -0.3351 -0.3901
    1W        W57740  22.819   6.247   1.919  0.0920  0.1412  0.0693
    1W        W57741   6.264   4.959   0.034 -0.1495 -0.2326  0.0398
    1W        W57742   9.028  27.595   2.215 -0.0024  0.1020 -0.4367
    1W        W57743  19.124   7.891   9.141  0.1286 -0.1788  0.1496
    1W        W57744   9.738   2.847   0.257  0.1764 -0.0866 -0.0606
    1W        W57745   5.468   3.558   8.489  0.2031  0.0890  0.0148
    1W        W57746   7.865  13.554   1.636  0.0205 -0.2624  0.0747
    1W        W57747  17.872   2.375   7.611  0.2214 -0.2467 -0.1484
    1W        W57748   9.882  14.132   8.343 -0.0070 -0.2283  0.2054
    1W        W57749  16.687  18.421   8.784 -0.1071  0.1699  0.0711
    1W        W57750  14.556  28.420   9.678  0.0229  0.1202  0.2041
    1W        W57751  25.586  27.999   2.944  0.2165  0.3195  0.0204
    1W        W57752  15.503   1.503   8.296  0.0379  0.2527 -0.1263
    1W        W57753  29.302  27.968   6.624 -0.0908 -0.0426  0.0396
    1W        W57754  24.054  15.364   7.900 -0.2035  0.0764 -0.1735
    1W        W57755  23.492  20.018   0.154 -0.1885 -0.0309 -0.1933
    1W        W57756   1.023  14.497   9.610 -0.0286  0.3362 -0.0188
    1W        W57757  10.594  23.174   7.875 -0.1079  0.0893 -0.1285
    1W        W57758   7.718  19.906   6.548 -0.1417 -0.1909  0.4795
    1W        W57759  13.200   0.498   1.810 -0.3300  0.2878 -0.1370
    1W        W57760  10.712  12.497   2.818  0.3278  0.3164  0.2941
    1W        W57761   8.886   3.349   1.120 -0.1450 -0.2817  0.0730
    1W        W57762   8.523   4.158   1.846 -0.1446 -0.3164  0.0837
    1W        W57763  13.629   8.496   7.866  0.1853 -0.0451  0.0664
    1W        W57764   1.511  10.934   2.730  0.3432 -0.0486 -0.0318
    1W        W57765  18.481  25.783   2.469  0.1145 -0.4419 -0.0242
    1W        W57766   9.888   1.081   7.406  0.0323  0.1526 -0.1040
    1W        W57767  20.727   4.378   3.064  0.1008 -0.0479  0.0258
    1W        W57768  18.672  19.521   8.651 -0.1496  0.3938 -0.1617
    1W        W57769   0.113   5.570   9.533  0.1756  0.1633 -0.0879
    1W        W57770  19.700  10.838   2.156 -0.1391 -0.1032 -0.0233
    1W        W57771  12.483   3.728   8.328 -0.2227  0.2266 -0.1372
    1W        W57772  22.473  13.334   9.335  0.0211 -0.1343  0.0999
    1W        W57773  22.258  15.810   0.709 -0.0069  0.1298 -0.0107
    1W        W57774   8.894  11.829   8.867  0.0026  0.0387 -0.2904
    1W        W57775   1.951  16.590   7.064 -0.1506 -0.1927 -0.2549
    1W        W57776  25.658  12.239   8.268  0.1019 -0.0403  0.0824
    1W        W57777  25.877   2.652   7.742  0.4156  0.0950 -0.0183
    1W        W57778   2.757   6.846   0.650  0.0246  0.0500  0.0884
    1W        W57779   3.610  20.904   9.132  0.0123  0.1799 -0.0704
    1W        W57780  19.609  21.410   3.615  0.1132  0.1136  0.1479
    1W        W57781  11.509   2.241   3.430 -0.1744 -0.1842 -0.1105
    1W        W57782  25.926  19.766   0.786 -0.0780 -0.1679 -0.4063
    1W        W57783   0.712  24.170   8.302 -0.0600 -0.1708 -0.0423
    1W        W57784   4.013  27.102   7.130  0.2775  0.0603  0.2175
    1W        W57785   3.251   4.156   7.452  0.1723  0.1120  0.1750
    1W        W57786  23.348  24.148   7.588  0.1101 -0.1831 -0.2306
    1W        W57787  28.331  27.232   7.157 -0.2803  0.1283  0.1515
    1W        W57788   9.214  23.503   9.086 -0.1693  0.1409  0.0965
    1W        W57789  26.541  14.357   0.270  0.2143  0.1276  0.0261
    1W        W57790   9.445  13.253   8.161 -0.1487 -0.1077 -0.3461
    1W        W57791  23.236   3.867   1.552  0.2413 -0.0786  0.3579
    1W        W57792  18.687  11.689   1.680  0.0706  0.1044  0.1254
    1W        W57793  18.671  11.026   9.331  0.2504 -0.0838 -0.3086
    1W        W57794   2.522  27.529   1.333 -0.1059 -0.2632  0.2502
    1W        W57795   1.589  28.240   6.878 -0.2301  0.0919  0.3256
    1W        W57796  16.104  19.724   1.935  0.1665 -0.1448 -0.1794
    1W        W57797   6.956  20.096   6.281  0.2569 -0.1147 -0.1670
    1W        W57798  15.210   0.120   8.323  0.0751 -0.0649 -0.0473
    1W        W57799  15.740   2.655   7.636 -0.1817  0.0365  0.1685
    1W        W57800   4.965  16.010   7.127  0.1772 -0.1396 -0.0805
    1W        W57801  28.331  28.558   2.350 -0.2015  0.2092  0.2312
    1W        W57802  24.220   1.260   9.079 -0.1381  0.0723  0.1690
    1W        W57803  24.387  19.493   1.442  0.1038  0.2690 -0.1077
    1W        W57804  10.364   2.962   8.289  0.4382 -0.1300 -0.3219
    1W        W57805  28.178  13.896   0.659 -0.1032  0.2641  0.0462
    1W        W57806  17.512  12.991   7.115 -0.1691  0.1852  0.1117
    1W        W57807  14.972  20.288   0.834 -0.1668  0.2708  0.0223
    1W        W57808  15.210   6.611   1.536  0.1115 -0.0825  0.2182
    1W        W57809  26.286  23.924   0.363 -0.1929  0.1390  0.3626
    1W        W57810  10.251  14.070   7.419  0.0924  0.0751 -0.2550
    1W        W57811   8.749   3.636   2.974 -0.1024 -0.3049 -0.2426
    1W        W57812   5.629   4.623   7.864  0.0061 -0.1400  0.0843
    1W        W57813  20.627  25.429   8.829 -0.2763 -0.1801 -0.0212
    1W        W57814  10.014  11.282   9.598 -0.3018  0.1714 -0.2119
    1W        W57815   7.925  13.977   9.487 -0.1478 -0.1592 -0.1332
    1W        W57816  15.900  10.875   0.362 -0.0732  0.0811  0.1172
    1W        W57817  18.323  15.908   9.312  0.0780 -0.3110  0.0472
    1W        W57818  17.826  16.285   7.534  0.0525 -0.3333  0.0745
    1W        W57819   6.517   3.972   7.956 -0.1122  0.2847 -0.3207
    1W        W57820  22.293   9.070   2.094  0.0526 -0.1511  0.2041
    1W        W57821  27.515  25.907   6.949 -0.1184 -0.0557  0.2539
    1W        W57822  16.983   8.446   1.840  0.0293  0.0078 -0.0905
    1W        W57823   4.335  10.029   7.441 -0.0155 -0.1704 -0.0016
    1W        W57824  26.395  14.785   0.488  0.0206 -0.0787 -0.1411
    1W        W57825  15.940  27.120   3.169 -0.0836 -0.2134  0.0664
    1W        W57826  17.239   8.514   9.328  0.0561  0.0550  0.2097
    1W        W57827   7.580  20.702   7.726  0.2527 -0.2232 -0.1100
    1W        W57828   6.781   4.739   2.283 -0.1377  0.1098  0.0357
    1W        W57829   6.077  11.542   7.328  0.1549 -0.0587  0.0586
    1W        W57830  20.180  23.735   2.566  0.2117  0.0496  0.2028
    1W        W57831  10.422  16.400   7.615 -0.0810 -0.1657  0.1516
    1W        W57832  10.769   8.539   7.918 -0.1434 -0.1000 -0.3045
    1W        W57833   3.074  10.008   8.961 -0.1373 -0.3707 -0.0545
    1W        W57834  18.849  24.062   7.641 -0.1836  0.1408  0.3171
    1W        W57835  24.668  14.403   6.594  0.0248 -0.2958 -0.0916
    1W        W57836  23.923   5.372   2.074 -0.2220 -0.3593 -0.3087
    1W        W57837  28.620   5.457   2.357 -0.4295  0.1308  0.2152
    1W        W57838  25.826  11.511   8.503  0.0376 -0.1459 -0.5394
    1W        W57839  26.181  25.355   8.411  0.0194  0.1714 -0.1042
    1W        W57840   9.626  26.541   0.418 -0.2484  0.0305  0.0084
    1W        W57841  12.039  17.774   7.048 -0.2087  0.1119 -0.2850
    1W        W57842   3.868   4.471   6.259 -0.0199 -0.0859 -0.1038
    1W        W57843   0.934  11.439   2.277  0.0419 -0.2621 -0.0398
    1W        W57844   9.076  11.868   2.094  0.1376 -0.2122  0.1972
    1W        W57845   1.016  14.153   5.592  0.3199  0.0893 -0.0214
    1W        W57846  24.311  13.936   8.827  0.2110 -0.0569 -0.0245
    1W        W57847  14.648   7.468   0.446 -0.0226 -0.1544 -0.2761
    1W        W57848  20.785  24.124   7.868  0.2445  0.0299 -0.1719
    1W        W57849   4.008  22.509   6.679  0.0196  0.1885 -0.2692
    1W        W57850  14.441  26.652   0.542  0.4281 -0.0930  0.0215
    1W        W57851  26.109   2.880   6.947 -0.0921 -0.2601 -0.0500
    1W        W57852  26.445  13.659   9.666 -0.0071 -0.0777 -0.0224
    1W        W57853  22.741  11.844   7.879  0.2727  0.1833 -0.3369
    1W        W57854  16.003   2.188   9.272 -0.3210  0.1053  0.1988
    1W        W57855  21.399  11.845   8.473  0.0058  0.1350  0.2017
    1W        W57856  17.178  27.364   7.419  0.1142 -0.1995  0.2099
    1W        W57857  18.703  23.303   3.060 -0.0445 -0.0682  0.0079
    1W        W57858  10.770  17.345   9.164  0.1270  0.0295 -0.1485
    1W        W57859  23.397  20.802   8.557 -0.1631  0.0239 -0.0793
    1W        W57860   0.928  25.687   1.173  0.0661  0.1840  0.0033
    1W        W57861  27.073   0.040   9.511 -0.0288 -0.0649  0.5432
    1W        W57862  24.887  15.277   5.842 -0.1258  0.0614  0.1965
    1W        W57863   0.262   8.807   9.341 -0.1233  0.2710 -0.0907
    1W        W57864  21.439   3.144   8.141  0.2610  0.0088  0.0739
    1W        W57865  24.551   2.803   0.562  0.3129 -0.3644 -0.2715
    1W        W57866   4.462  13.120   7.207 -0.0463  0.0473 -0.0228
    1W        W57867   1.683  25.856   2.915 -0.2850  0.2114  0.1774
    1W        W57868  21.046   0.034   0.378 -0.0146 -0.1192 -0.2111
    1W        W57869   2.937   0.667   5.661  0.1924  0.0756  0.0039
    1W        W57870  26.865  18.588   1.479  0.1470 -0.1503 -0.2155
    1W        W57871  16.640   3.100   2.074 -0.0511 -0.4082 -0.0514
    1W        W57872  20.338   7.055   0.381 -0.0979 -0.1033 -0.1417
    1W        W57873   6.415  16.262   0.771 -0.1455  0.1229  0.2305
    1W        W57874  14.305  14.220   8.112 -0.1187  0.2037 -0.1607
    1W        W57875   3.358   3.823   1.422  0.0179  0.2289 -0.0150
    1W        W57876  10.815  13.681   9.171  0.2855 -0.1420 -0.3038
    1W        W57877  24.367   6.950   9.099  0.2081  0.0847 -0.1081
    1W        W57878  14.926   9.393   9.039 -0.6012  0.2683  0.0815
    1W        W57879   5.617  11.639   8.836  0.0687  0.0806  0.1433
    1W        W57880  13.519  18.473   7.718  0.0678  0.2003 -0.0330
    1W        W57881  29.322  11.204   9.242  0.2727  0.3728 -0.2136
    1W        W57882   9.099  23.344   9.675  0.2110  0.0530  0.1648
    1W        W57883   2.955   2.648   9.025  0.2311 -0.1943 -0.0850
    1W        W57884   8.410   1.691   9.078 -0.0818 -0.1935 -0.3257
    1W        W57885  15.234  24.955   0.610 -0.0388 -0.1376  0.1009
    1W        W57886  26.202  20.180   9.524  0.0619  0.1102  0.1573
    1W        W57887   0.762   8.216   1.443  0.1750  0.0169 -0.0802
    1W        W57888   3.615   1.828   8.697 -0.4316 -0.0871  0.0828
    1W        W57889  11.229  28.182   2.942  0.2750  0.0744  0.2072
    1W        W57890  19.298  20.915   2.065 -0.0761  0.0628  0.0875
    1W        W57891  12.055   2.498   9.043 -0.0486 -0.1427  0.0590
    1W        W57892   7.505   5.797   9.689  0.0393  0.0790 -0.0771
    1W        W57893   1.451   2.950   8.500 -0.2789  0.0425  0.0419
    1W        W57894  23.842  24.201   7.943  0.1060  0.1259 -0.0171
    1W        W57895  18.527  22.580   7.984  0.0968 -0.1538  0.3170
    1W        W57896   0.799  10.254   8.084 -0.0418  0.3031  0.3315
    1W        W57897  11.517   3.645   3.339 -0.0927  0.4243  0.2280
    1W        W57898  19.164   8.522   9.108  0.2561 -0.0116 -0.2122
    1W        W57899   5.056  20.068   6.471  0.0371  0.1304  0.0047
    1W        W57900  10.344  16.383   7.105  0.1924 -0.0320 -0.2103
    1W        W57901  28.952  17.242   1.017 -0.1611 -0.0816 -0.1141
    1W        W57902  20.281  10.117   8.291 -0.0220  0.1914 -0.0270
    1W        W57903   2.410   8.567   0.446  0.1152 -0.3986 -0.1300
    1W        W57904  20.494  21.758   0.087 -0.2741  0.0812  0.0580
    1W        W57905   2.244  22.626   7.669 -0.1031 -0.0306 -0.0829
    1W        W57906  24.508  26.170   0.070  0.1311 -0.0729 -0.1682
    1W        W57907  11.562  22.757   1.779 -0.1143  0.0362 -0.1128
    1W        W57908   5.304   7.360   8.646  0.3592 -0.0146  0.1755
    1W        W57909   9.439  25.511   2.414 -0.1386  0.1005  0.1396
    1W        W57910   3.175  24.063   8.808 -0.2219 -0.0109 -0.0343
    1W        W57911  23.447  29.068   1.685 -0.0361  0.4749  0.0429
    1W        W57912  20.366  12.267   7.417 -0.1390  0.1943 -0.2086
    1W        W57913  21.305  15.766   7.289  0.0769 -0.0943  0.0522
    1W        W57914   0.380  16.466   6.580  0.0279  0.1282  0.1244
    1W        W57915  11.526   7.661   1.869  0.2489  0.0158 -0.0676
    1W        W57916   9.807  13.646   0.234 -0.0600 -0.2137 -0.0633
    1W        W57917   5.958  23.075   6.914  0.3500 -0.2072 -0.3130
    1W        W57918  21.110  12.633   1.702  0.1343  0.0497 -0.0344
    1W        W57919  20.982  14.285   9.287  0.1898 -0.2740  0.1467
    1W        W57920   6.251  13.550   9.480 -0.4800 -0.1079  0.2334
    1W        W57921   3.238   2.283   6.384  0.1678 -0.4098 -0.0600
    1W        W57922   5.034   6.629   6.102  0.1463 -0.0760 -0.0570
    1W        W57923   6.076   2.335   0.966 -0.2622 -0.0273 -0.0026
    1W        W57924   7.439   8.602   1.570  0.0696  0.2172  0.1075
    1W        W57925   2.861  26.282   7.705  0.1457 -0.0755  0.0462
    1W        W57926  25.015   1.671   7.291 -0.2093 -0.0213 -0.1154
    1W        W57927  25.087   4.603   1.874 -0.1872  0.1685 -0.0397
    1W        W57928  25.868   6.532   9.594  0.1433  0.0077  0.3162
    1W        W57929  16.015  28.579   2.980  0.1034  0.1736  0.3045
    1W        W57930  10.291   2.905   1.533 -0.1429  0.0134  0.1169
    1W        W57931  26.190  26.595   1.771  0.0538  0.3627  0.2893
    1W        W57932   7.217   6.729   0.538 -0.2114  0.1020  0.4749
    1W        W57933  16.075  16.170   7.514  0.1679  0.0185  0.0327
    1W        W57934   1.691   3.275   1.452 -0.0450  0.0951  0.1053
    1W        W57935  23.473   5.962   9.311 -0.1972 -0.0174 -0.2681
    1W        W57936  22.779  10.427   0.454  0.3215 -0.0141 -0.2298
    1W        W57937  15.871   3.113   7.929  0.2346  0.4757  0.1088
    1W        W57938  26.441  22.539   1.921  0.2727  0.0125 -0.0595
    1W        W57939  17.250   2.381   2.826 -0.3535  0.1034  0.1037
    1W        W57940  27.433  23.990   2.226  0.1459  0.0086 -0.1101
    1W        W57941   4.842  17.495   0.469  0.0523  0.0365 -0.0565
    1W        W57942   0.256  26.360   0.722 -0.1545  0.0842 -0.0885
    1W        W57943  19.139  27.298   8.150 -0.2056 -0.1387 -0.0674
    1W        W57944  27.829  19.596   8.826 -0.1678  0.4619  0.2135
    1W        W57945  17.642  23.315   8.743  0.1744 -0.0803  0.1406
    1W        W57946   5.532   5.569   6.742  0.3237 -0.0539  0.0197
    1W        W57947  28.639  10.298   0.490 -0.0201  0.2432 -0.2802
    1W        W57948   4.974  12.142   8.655  0.2321 -0.1571 -0.1015
    1W        W57949   8.587  28.963   8.329  0.2082 -0.3589 -0.0791
    1W        W57950   1.883   5.383   7.344 -0.1566  0.1870  0.5931
    1W        W57951  27.741  26.502   6.988 -0.0392 -0.0512  0.0146
    1W        W57952   2.443  10.207   7.931 -0.1726  0.2586 -0.1890
    1W        W57953   2.632  11.213   8.993 -0.3401  0.2935 -0.0160
    1W        W57954  10.475  21.818   8.394  0.0493  0.0100  0.0036
    1W        W57955  26.866  10.088   1.237  0.2335 -0.1279 -0.2557
    1W        W57956   2.053  19.291   8.216  0.0842  0.2763  0.1684
    1W        W57957  25.507   1.443   7.239 -0.0324 -0.0507 -0.1995
    1W        W57958   5.306  11.224   9.268 -0.0919  0.0292  0.0054
    1W        W57959  19.486  21.116   7.351 -0.1608  0.2838 -0.3773
    1W        W57960  23.998   7.974   9.046 -0.1648 -0.0942 -0.0397
    1W        W57961  28.612  17.579   7.701  0.1407  0.0493 -0.0600
    1W        W57962   8.645  25.929   1.451  0.0497  0.1567 -0.0199
    1W        W57963  23.644  25.859   2.118 -0.1720 -0.2460 -0.1751
    1W        W57964  15.129  10.942   0.703 -0.3369 -0.0564  0.2943
    1W        W57965  14.913  21.126   9.147  0.0763  0.1359  0.0367
    1W        W57966  25.648  13.290   6.033  0.0203  0.0126  0.2256
    1W        W57967   0.463  26.866   7.993  0.0368 -0.0177 -0.0328
    1W        W57968  21.378   8.719   6.688  0.1528  0.1387 -0.0533
    1W        W57969  28.367  14.318   1.016  0.1640 -0.3461 -0.2374
    1W        W57970  10.108  24.636   7.990 -0.0987 -0.4497 -0.1516
    1W        W57971  16.305  20.245   8.863 -0.1525  0.1368 -0.1254
    1W        W57972   8.453  19.509   1.398 -0.0830 -0.0855  0.0120
    1W        W57973   3.948   6.710   2.531 -0.3532 -0.3228 -0.0848
    1W        W57974  17.944  13.199   6.976  0.4930 -0.0328 -0.0104
    1W        W57975  21.170   4.005   1.723 -0.0810 -0.2056  0.3834
    1W        W57976  17.324  10.341   8.312 -0.4525  0.1252 -0.0313
    1W        W57977   9.249  19.394   1.034  0.2096 -0.5144 -0.2127
    1W        W57978  19.849   1.361   6.080 -0.1827  0.1589  0.0650
    1W        W57979  26.817  13.826   9.263 -0.2582  0.3677 -0.1403
    1W        W57980  11.361   5.935   3.900  0.0824 -0.2618  0.1300
    1W        W57981  25.086  21.496   2.639  0.0150 -0.1755 -0.0966
    1W        W57982  16.387  27.268   2.848 -0.1243 -0.2609  0.0168
    1W        W57983   5.503  17.164   7.900  0.0102 -0.1076  0.0659
    1W        W57984  21.348  14.855   6.200 -0.0418  0.0250  0.1048
    1W        W57985  18.191   7.232   0.721  0.2253 -0.0309 -0.0709
    1W        W57986   5.776  27.804   3.464 -0.0022 -0.1116 -0.0214
    1W        W57987  28.679  16.534   1.658 -0.0235  0.0987  0.1353
    1W        W57988  26.577  23.151   7.759  0.2439 -0.1957  0.0004
    1W        W57989   6.472  26.205   9.230  0.2076  0.5090  0.3298
    1W        W57990  28.856   7.171   8.013  0.0750 -0.0809 -0.1338
    1W        W57991  11.589   5.780   8.821 -0.0714 -0.0257 -0.2716
    1W        W57992   4.891   8.685   7.182  0.2594 -0.1187  0.1937
    1W        W57993  22.355  27.334   2.065 -0.0912  0.0683  0.3116
    1W        W57994   1.680  16.817   8.728 -0.0238  0.0333  0.2070
    1W        W57995  10.351   0.271   8.272  0.2213 -0.3326  0.1681
    1W        W57996  10.257  23.488   8.023  0.0938 -0.0849 -0.0527
    1W        W57997  25.491  23.285   1.953 -0.0593  0.0235 -0.1928
    1W        W57998  22.663   0.611   9.685 -0.2551  0.0163 -0.2237
    1W        W57999  15.635  26.540   7.499 -0.0589  0.0626 -0.0856
    1W        W58000  22.646  23.953   2.185 -0.1251 -0.1288 -0.2501
    1W        W58001  15.149   5.412   2.146  0.3825 -0.0601  0.1454
    1W        W58002   4.418  15.710   2.472  0.0520 -0.1096 -0.2489
    1W        W58003  13.220  29.002   3.405  0.2032 -0.0503  0.3113
    1W        W58004  24.707  25.218   0.336 -0.1363 -0.1958  0.1332
    1W        W58005  18.609  10.745   8.262  0.2454 -0.1872  0.0311
    1W        W58006  24.299  24.984   8.371 -0.0108  0.1486 -0.2671
    1W        W58007   0.885   2.883   1.229  0.3135 -0.1025  0.1732
    1W        W58008  27.565  14.899   8.117 -0.0951  0.1446 -0.1470
    1W        W58009   2.959   1.561   1.521 -0.2606  0.0882 -0.3644
    1W        W58010   7.371   5.401   3.326  0.0443  0.0151  0.1135
    1W        W58011  15.245  10.253   7.619  0.1282 -0.0872 -0.1211
    1W        W58012  23.619   7.482   2.071  0.1749 -0.1540  0.0324
    1W        W58013   2.418  16.123   6.967 -0.2735  0.0744  0.1251
    1W        W58014  12.619  28.468   2.508 -0.2868  0.0817 -0.1605
    1W        W58015   1.058   5.809   6.487  0.2539 -0.4572  0.1516
    1W        W58016  21.830  20.051   2.406 -0.0367 -0.2460  0.1437
    1W        W58017  26.680  21.069   9.381  0.3339  0.3655  0.2081
    1W        W58018   1.227  26.031   6.659 -0.0724 -0.0005  0.2759
    1W        W58019   3.309  15.616   9.246  0.2457 -0.1976 -0.1874
    1W        W58020  18.526  20.878   2.235 -0.0581 -0.2021 -0.0145
    1W        W58021  24.071  21.845   2.931 -0.0975 -0.0244  0.1730
    1W        W58022   2.959  18.787   8.583 -0.2032  0.0059  0.1976
    1W        W58023   0.108  16.780   6.914 -0.0312  0.2770  0.0162
    1W        W58024  19.710  21.868   2.332  0.0595  0.1296  0.0773
    1W        W58025  27.516   6.137   7.177  0.2086 -0.2998 -0.0498
    1W        W58026  13.583   7.979   0.748 -0.0968 -0.0092  0.4850
    1W        W58027  21.400   4.703   1.397 -0.4543  0.0234 -0.0901
    1W        W58028  10.242  10.588   7.560  0.1471  0.0262  0.2887
    1W        W58029  27.066  22.650   8.211  0.3243  0.0466  0.0769
    1W        W58030  24.250   1.828   5.937  0.0359  0.0117  0.0899
    1W        W58031  13.002  12.552   9.325 -0.1473  0.0835  0.2058
    1W        W58032   2.690   5.824   0.638  0.1033  0.1270 -0.1772
    1W        W58033  15.414  27.740   0.751  0.1887 -0.0495  0.1330
    1W        W58034  25.693  18.399   7.572 -0.0172 -0.3774  0.0452
    1W        W58035  15.088   7.456   8.274  0.1822  0.1252  0.0737
    1W        W58036  23.293   7.113   7.460  0.1871  0.1060 -0.0851
    1W        W58037  15.711   8.763   9.096 -0.0654 -0.3486  0.0684
    1W        W58038  29.354  18.515   1.266 -0.2193  0.0824  0.1625
    1W        W58039  24.703   7.322   8.556  0.1233  0.1566 -0.1821
    1W        W58040  21.338  23.601   0.896 -0.2484 -0.2332  0.3845
    1W        W58041  13.005  12.492   8.826  0.1935  0.1088  0.3497
    1W        W58042   9.477  19.393   0.511  0.0212 -0.0922  0.1947
    1W        W58043   1.881  15.620   7.336  0.1127  0.0767  0.0898
    1W        W58044   2.195  14.266   1.207 -0.1201  0.1288  0.2383
    1W        W58045  28.960  13.733   5.738  0.1168 -0.1639  0.1221
    1W        W58046   1.123   8.945   9.273  0.0184 -0.2527 -0.0548
    1W        W58047   9.505   6.464   8.421 -0.2730 -0.3904 -0.0199
    1W        W58048  10.859  18.543   0.317 -0.0598  0.0437 -0.0238
    1W        W58049  28.333  22.870   1.936 -0.2856  0.1954 -0.0181
    1W        W58050   0.473   1.107   2.748  0.3591  0.0474  0.0647
    1W        W58051  14.162   0.671   7.672  0.2259 -0.2301 -0.1718
    1W        W58052  19.656   3.546   8.642  0.1545  0.2343 -0.0702
    1W        W58053   5.408  10.059   1.986  0.0804 -0.1574  0.0856
    1W        W58054  24.305  23.914   9.286  0.0102 -0.0829  0.0263
    1W        W58055  14.302   9.923   2.316 -0.0671  0.1781  0.4195
    1W        W58056   0.604   3.935   7.960  0.0876  0.0790 -0.0878
    1W        W58057   9.170  24.380   7.333  0.0054 -0.4710 -0.2089
    1W        W58058  14.439  18.153   8.539  0.1905 -0.2355  0.2751
    1W        W58059  16.603  21.033   2.062 -0.1779 -0.2248 -0.0640
    1W        W58060   8.529   6.848   3.045 -0.1182 -0.1272  0.4663
    1W        W58061  23.557  12.282   0.332 -0.1856  0.0909 -0.0292
    1W        W58062  15.871   3.752   8.376 -0.0893 -0.1827  0.0993
    1W        W58063  12.444   4.335   7.515  0.0421  0.1929  0.1570
    1W        W58064   5.498  10.542   2.107 -0.2530  0.0739 -0.2058
    1W        W58065  28.273   0.635   8.705 -0.0065 -0.1678 -0.4201
    1W        W58066  24.891  18.544   2.027  0.0969  0.0921  0.0020
    1W        W58067   0.480  15.147   9.155  0.1017  0.3033 -0.2723
    1W        W58068   8.755   7.370   6.144  0.3069  0.0091  0.1230
    1W        W58069   2.439   2.634   7.683  0.3985 -0.3221 -0.0325
    1W        W58070  14.643   9.389   9.445 -0.2993  0.0502 -0.1197
    1W        W58071  28.771   6.513   9.038 -0.3181 -0.2174 -0.0396
    1W        W58072  11.137   0.780   8.194  0.0914  0.1241 -0.3267
    1W        W58073   4.415   7.889   8.868  0.1150  0.2504  0.0773
    1W        W58074  26.509   6.662   7.431  0.0366  0.3999 -0.0250
    1W        W58075  25.989   8.304   7.636  0.0068  0.2228 -0.2433
    1W        W58076   2.878  21.760   6.518 -0.1735  0.0332 -0.1733
    1W        W58077  10.721   7.516   0.246 -0.1128  0.0534 -0.0210
    1W        W58078   6.879   2.156   7.324 -0.1312  0.0589  0.0294
    1W        W58079  10.329  16.633   0.043 -0.0487  0.0859  0.1824
    1W        W58080  14.883  11.313   2.575  0.2109 -0.3126  0.2121
    1W        W58081  15.393  22.975   8.499 -0.2064  0.3490  0.1313
    1W        W58082  25.502   8.129   8.573 -0.1366  0.1026 -0.1462
    1W        W58083  15.711   9.873   2.833 -0.0341  0.0088 -0.1808
    1W        W58084  28.810  24.306   8.273 -0.0007  0.0970  0.0022
    1W        W58085  26.749   2.839   2.441 -0.3345  0.2001  0.0075
    1W        W58086  28.262   8.679   8.025  0.2834  0.1858  0.1827
    1W        W58087  21.071  25.437   2.140 -0.0013  0.0800 -0.3835
    1W        W58088   8.890   6.326   9.134  0.1145 -0.1870  0.0609
    1W        W58089  11.382  24.932   7.472  0.0373 -0.0370  0.1340
    1W        W58090   0.843  28.222   3.353  0.1514 -0.3128  0.1116
    1W        W58091  26.791  26.290   0.675  0.2232 -0.0061 -0.0559
    1W        W58092  18.969  18.906   7.583  0.0783 -0.0967 -0.0526
    1W        W58093   0.520  27.835   8.006 -0.2812  0.0493  0.2670
    1W        W58094  12.453   0.480   8.134 -0.2453 -0.2758 -0.1918
    1W        W58095  28.147  23.837   1.588  0.2653 -0.0590 -0.2424
    1W        W58096  11.656   7.271   7.949  0.0567 -0.1022 -0.2293
    1W        W58097   0.113  13.383   0.207  0.0012  0.0601 -0.1281
    1W        W58098   1.075   8.975   1.026  0.1016 -0.2419  0.0932
    1W        W58099  13.358  16.759   8.453  0.0649  0.1021 -0.0044
    1W        W58100  18.027  28.535   8.195  0.0855  0.1847  0.0650
    1W        W58101  20.883  12.938   9.584  0.1400  0.0210 -0.1441
    1W        W58102  26.909  21.907   2.272  0.0622 -0.0838 -0.0885
    1W        W58103   8.780  23.102   5.852 -0.0486  0.1136 -0.1324
    1W        W58104  16.668  22.672   7.104 -0.0471  0.1969 -0.1088
    1W        W58105  27.554   0.762   9.276  0.2383 -0.1624 -0.2761
    1W        W58106  29.159  27.056   7.492  0.3398  0.0334 -0.1421
    1W        W58107  28.396  17.460   1.219  0.1296 -0.0480  0.1927
    1W        W58108  10.055   8.954   8.911  0.1995 -0.2349  0.0547
    1W        W58109   2.041  17.958   7.276 -0.0391  0.1808 -0.1168
    1W        W58110   1.850  23.622   1.273  0.0758 -0.2014  0.1634
    1W        W58111   1.322   3.591   1.166 -0.0612  0.2622 -0.1885
    1W        W58112  21.988  13.568   9.289 -0.0486 -0.0546 -0.2069
    1W        W58113  22.252   5.724   2.921 -0.1623  0.0226  0.1292
    1W        W58114   8.062  22.570   2.180 -0.1198 -0.2828 -0.2615
    1W        W58115   2.956  25.868   7.994  0.1255 -0.0593 -0.2594
    1W        W58116   5.555  20.018   2.549 -0.0356  0.1603  0.0755
    1W        W58117   8.606  11.688   1.280  0.2246 -0.1122  0.1382
    1W        W58118  12.405   0.222   2.268  0.0779 -0.3704 -0.2805
    1W        W58119   5.994  26.565   2.863  0.2055  0.1902 -0.0671
    1W        W58120  17.821  17.616   0.802 -0.0774  0.0309  0.1435
    1W        W58121  24.806  22.805   7.783 -0.1297 -0.0061  0.1022
    1W        W58122  21.279   0.023   8.540 -0.1213 -0.2434  0.0644
    1W        W58123   3.833  18.266   0.117  0.1191  0.3300 -0.1141
    1W        W58124  26.761  19.127   6.204  0.0791 -0.1838 -0.3652
    1W        W58125  12.446  11.048   0.358 -0.3086 -0.0847  0.1573
    1W        W58126  22.024  21.300   8.865 -0.2313  0.2885 -0.1026
    1W        W58127  23.816  28.617   1.545 -0.2142  0.0807 -0.2192
    1W        W58128   4.640   7.349   6.313 -0.1611 -0.0902 -0.0965
    1W        W58129   5.744   2.935   6.697  0.1816 -0.3416  0.0799
    1W        W58130  21.387   6.958   8.149 -0.0812  0.1303 -0.4536
    1W        W58131  25.174  10.848   8.605  0.0025 -0.4873  0.2432
    1W        W58132   7.252  21.876   7.962 -0.0523  0.3936  0.0705
    1W        W58133  11.425  26.413   7.894  0.4301  0.0681 -0.0135
    1W        W58134   8.159  12.012   8.324  0.1078 -0.3332  0.0647
    1W        W58135  22.032  11.350   0.011  0.0675 -0.2388 -0.0036
    1W        W58136  22.307  14.466   6.286 -0.2553  0.0014  0.1716
    1W        W58137  15.496  27.290   0.069 -0.1966 -0.0846  0.0112
    1W        W58138  10.211  27.054   8.552  0.0525  0.1300 -0.0042
    1W        W58139   7.115  21.541   2.116 -0.0752 -0.2250  0.0950
    1W        W58140   7.451   9.729   8.491 -0.0949 -0.1410 -0.3574
    1W        W58141  20.769  19.615   2.051  0.0032 -0.0207  0.0727
    1W        W58142   0.512   6.580   1.149 -0.0737  0.1977  0.0496
    1W        W58143   7.223  22.955   8.391 -0.1270  0.3177 -0.0835
    1W        W58144   4.030  26.249   6.860 -0.1772 -0.0723  0.0493
    1W        W58145  24.864   5.590   8.898 -0.2347  0.2171 -0.1952
    1W        W58146   6.922  21.048   9.680  0.1362  0.1709  0.2675
    1W        W58147   1.838  21.233   6.340  0.0923 -0.0957  0.2190
    1W        W58148  25.270   9.396   1.850  0.1483 -0.0193  0.1857
    1W        W58149  24.997   4.377   1.481 -0.3787  0.0723  0.0328
    1W        W58150  10.637   6.742   9.115  0.0152 -0.0593 -0.0703
    1W        W58151   1.837   0.955   6.715  0.0026 -0.2311  0.1629
    1W        W58152   0.860   3.185   6.214  0.0234  0.1924  0.1675
    1W        W58153   8.091  14.458   7.604  0.4070 -0.0006 -0.1592
    1W        W58154   0.558  11.217   0.596 -0.1432 -0.0371 -0.0348
    1W        W58155  27.108  22.296   3.052 -0.0033 -0.1622  0.1262
    1W        W58156   5.652  12.198   9.426  0.2399 -0.1305 -0.0012
    1W        W58157  15.774   5.846   3.025  0.2254  0.0147  0.0798
    1W        W58158  22.143  26.319   2.604 -0.0053 -0.1072 -0.3030
    1W        W58159   6.354  28.127   1.544  0.1643 -0.1881  0.0872
    1W        W58160  15.908  23.521   8.030  0.3725  0.4175  0.0199
    1W        W58161  27.244  13.935   6.422 -0.1015 -0.1752 -0.1778
    1W        W58162   5.501   5.460   1.538 -0.3014  0.2018 -0.1486
    1W        W58163  10.886   2.099   8.161  0.0197 -0.1741 -0.3242
    1W        W58164   2.080  11.807   7.410 -0.0719 -0.2159  0.1926
    1W        W58165   1.626  19.960   1.698 -0.3682 -0.4647 -0.0667
    1W        W58166  15.385  16.103   0.943 -0.2671  0.0517 -0.0025
    1W        W58167   7.264   8.970   1.248  0.0167  0.1788 -0.1791
    1W        W58168   7.507   3.314   9.220 -0.1191  0.0891  0.1452
    1W        W58169  20.352  19.966   0.413  0.1851 -0.0404 -0.1755
    1W        W58170  29.054  28.014   6.210 -0.1136 -0.0474  0.0273
    1W        W58171  14.580  28.815   8.740  0.1864 -0.0244  0.1439
    1W        W58172  12.575  15.878   2.706 -0.0831 -0.1109  0.2734
    1W        W58173  19.166   2.137   0.869  0.1222  0.0889  0.3441
    1W        W58174   5.713  25.335   9.634 -0.2680  0.0099  0.1244
    1W        W58175  19.027  15.208   1.170  0.1990 -0.0461  0.0962
    1W        W58176  17.421  20.663   8.707  0.2236 -0.0079  0.0638
    1W        W58177   4.745   6.851   6.518  0.1002  0.1459 -0.1152
    1W        W58178   1.292  21.468   9.194 -0.2458  0.0897 -0.1115
    1W        W58179   8.158  28.687   3.494  0.0952 -0.1345 -0.1309
    1W        W58180  24.424   4.491   7.503 -0.6270 -0.1017 -0.1209
    1W        W58181  17.521  17.143   1.921  0.0607 -0.1852  0.2437
    1W        W58182   9.386  19.681   2.582 -0.2251 -0.0947  0.0172
    1W        W58183  14.630  16.378   9.130  0.1219  0.2725  0.1658
    1W        W58184  22.501  26.158   8.464 -0.0278 -0.0201 -0.0903
    1W        W58185   8.130  23.224   9.658  0.0186  0.0615 -0.0574
    1W        W58186   0.319  12.621   8.961  0.2116  0.1356  0.0204
    1W        W58187  16.626   7.834   0.113 -0.0368 -0.1227  0.1543
    1W        W58188  25.016   2.501   7.702 -0.1535  0.0828 -0.1137
    1W        W58189   7.262  25.231   1.677 -0.0116 -0.1149  0.1704
    1W        W58190  17.241  28.719   8.632  0.0655  0.2049  0.0998
    1W        W58191  23.937  23.016   7.624 -0.1703  0.2143 -0.0437
    1W        W58192   3.709   5.519   8.834  0.1482 -0.1604  0.1715
    1W        W58193  27.878   2.321   0.503  0.0951  0.0590  0.2716
    1W        W58194  12.149   6.528   8.322  0.0704  0.0764  0.0190
    1W        W58195   2.566   8.825   1.311 -0.1640 -0.2091  0.0066
    1W        W58196  16.809  28.967   1.956 -0.1411 -0.3453 -0.1431
    1W        W58197  12.545  28.586   1.361 -0.1598  0.1549 -0.2562
    1W        W58198  22.493  16.291   9.092 -0.1766  0.0465  0.0598
    1W        W58199  23.077  17.138   8.219  0.2369 -0.0048 -0.1129
    1W        W58200  28.801   7.256   7.008  0.1801 -0.1383  0.5027
    1W        W58201  11.952  16.847   9.418 -0.0232  0.0627 -0.0002
    1W        W58202  25.797  20.544   0.692 -0.1871 -0.1403  0.0796
    1W        W58203  23.410   9.581   1.464  0.3215 -0.2346  0.0597
    1W        W58204  21.042  27.640   2.682  0.2021  0.1123  0.0156
    1W        W58205   3.191   6.712   8.210 -0.4574 -0.0298  0.3790
    1W        W58206  15.385   5.300   3.175  0.1488  0.1765 -0.0413
    1W        W58207  10.365  23.110   6.752  0.0808 -0.1117 -0.0097
    1W        W58208  22.749  14.526   9.642 -0.0251 -0.3389  0.0424
    1W        W58209   4.484  19.728   0.617 -0.0515 -0.2201  0.1975
    1W        W58210  27.288  23.446   9.314 -0.2293 -0.0434 -0.1162
    1W        W58211   8.616   6.631   0.684  0.0988  0.3641  0.0740
    1W        W58212  10.613  19.854   0.823 -0.2313 -0.2521 -0.3498
    1W        W58213  18.457  15.054   9.210  0.2402 -0.4446 -0.1167
    1W        W58214   7.508  29.046   1.578 -0.1166 -0.1637 -0.0711
    1W        W58215   3.930   5.143   1.567 -0.0430 -0.0542  0.0075
    1W        W58216   5.173  21.325   7.207 -0.1108  0.1880  0.0621
    1W        W58217  20.644   9.053   2.824 -0.0135 -0.1074  0.2178
    1W        W58218  24.898  14.935   8.255 -0.1255  0.1494  0.2203
    1W        W58219   7.543  25.086   7.511  0.1313  0.0380  0.0946
    1W        W58220  23.260   4.099   1.024 -0.3133 -0.1752 -0.0119
    1W        W58221  12.386   8.333   7.171 -0.3733  0.0139  0.0858
    1W        W58222  25.846  23.396   7.441 -0.1650  0.2076 -0.1775
    1W        W58223  13.639  28.128   8.210  0.1377  0.0013  0.0226
    1W        W58224  24.026  11.470   8.548 -0.1753  0.3631 -0.2348
    1W        W58225   5.683  27.378   0.380  0.1380  0.3782 -0.1053
    1W        W58226   8.921   9.130   2.258  0.2545  0.0580 -0.2343
    1W        W58227   4.863   8.906   7.667  0.0542 -0.0228 -0.0098
    1W        W58228  23.591  22.934   2.485  0.0507 -0.0878 -0.0450
    1W        W58229  18.436  14.090   6.571  0.3517  0.0069  0.1365
    1W        W58230  22.825   6.298   8.727 -0.0591 -0.0397 -0.2378
    1W        W58231  10.648   5.273   7.692 -0.1268 -0.1833 -0.1015
    1W        W58232  11.179  26.634   8.307  0.0494  0.1100 -0.1279
    1W        W58233  10.709  16.939   9.446  0.0073 -0.0692  0.0684
    1W        W58234   4.840   6.963   7.367  0.0085  0.1651  0.5290
    1W        W58235  25.510   6.864   6.597 -0.1938 -0.0348  0.1239
    1W        W58236  21.827   3.501   7.632  0.0193  0.0457 -0.3104
    1W        W58237  18.839  22.557   7.417  0.0360  0.1980 -0.1846
    1W        W58238   0.149  18.172   6.072 -0.1565 -0.0641 -0.1747
    1W        W58239  28.920  15.272   1.444 -0.1420  0.0518 -0.0022
    1W        W58240   7.841   5.889   1.117 -0.1484  0.1682  0.1647
    1W        W58241  25.602  10.846   0.967  0.2269 -0.3028  0.0749
    1W        W58242  10.898  20.553   8.828  0.1372 -0.1050 -0.0037
    1W        W58243   0.824  20.689   8.499  0.2980  0.0185 -0.0063
    1W        W58244   9.432  24.386   0.821 -0.0137  0.1533 -0.0111
    1W        W58245  21.016   1.980   0.852  0.0719 -0.2101  0.0069
    1W        W58246   6.647   7.210   0.325  0.2259  0.3133 -0.0062
    1W        W58247   4.160   6.298   7.611 -0.1764 -0.0546 -0.1460
    1W        W58248  10.034  22.900   8.018 -0.0016  0.0669 -0.2384
    1W        W58249  16.843  28.434   8.528  0.0926 -0.0386  0.1942
    1W        W58250  26.157   5.996   1.328  0.2879 -0.2995  0.0615
    1W        W58251  21.384  11.672   1.476 -0.3526 -0.0427 -0.3479
    1W        W58252   1.514   8.950   8.959  0.1423  0.1196  0.3448
    1W        W58253  10.527  25.444   7.899  0.0959  0.0441 -0.0144
    1W        W58254   0.429   9.455   1.706 -0.5765 -0.0055 -0.0001
    1W        W58255   4.769   3.866   6.727  0.1887  0.0839  0.0452
    1W        W58256   6.613  27.279   0.880 -0.0323  0.0273  0.1972
    1W        W58257  28.533  13.214   7.400 -0.0106 -0.0272 -0.1712
    1W        W58258   1.062   4.069   8.234  0.1332  0.1636  0.3773
    1W        W58259  25.939  27.452   0.121 -0.3649 -0.2273 -0.4824
    1W        W58260  18.012  25.665   7.382 -0.0843 -0.0782  0.2148
    1W        W58261  27.643   6.898   0.877  0.1634  0.1976 -0.0554
    1W        W58262   1.230  20.222   1.972  0.0066 -0.1692  0.3336
    1W        W58263   6.787   6.201   1.757  0.0942  0.1655  0.2088
    1W        W58264  15.142  18.482   8.936  0.0211  0.0703  0.0275
    1W        W58265  23.888  16.119   0.684  0.0558 -0.0688 -0.4461
    1W        W58266  21.314   8.380   8.255 -0.2642 -0.0603 -0.3163
    1W        W58267  15.242   2.193   2.979  0.0097  0.1369  0.1675
    1W        W58268  14.959   5.848   2.164 -0.2012  0.1684  0.1041
    1W        W58269  26.715  13.226   9.546 -0.1687  0.3234  0.1800
    1W        W58270  22.272  14.283   7.161  0.2969 -0.0601  0.0868
    1W        W58271  24.161   0.459   9.543 -0.0549 -0.2074 -0.2337
    1W        W58272   6.591   2.948   0.124  0.1087  0.2577  0.2772
    1W        W58273  22.766  13.383   7.858  0.2221  0.0323 -0.1493
    1W        W58274  16.998  15.186   7.588 -0.1992 -0.3342  0.2077
    1W        W58275   0.647  16.881   8.508 -0.2163  0.0331  0.1550
    1W        W58276  15.795   9.388   3.007  0.0133 -0.0725  0.1400
    1W        W58277   6.330   6.307   8.435 -0.2048  0.1636  0.1847
    1W        W58278   7.245  23.930   8.768 -0.0370 -0.0727  0.3126
    1W        W58279  21.022  26.204   7.655 -0.2245 -0.0023  0.0660
    1W        W58280  29.303  29.239   2.391  0.2599  0.0028 -0.0276
    1W        W58281  11.600  15.596   0.097  0.1038 -0.2948  0.1165
    1W        W58282   0.317   3.266   0.398  0.0917  0.0543 -0.2471
    1W        W58283  18.012  12.641   8.291 -0.3924 -0.0568 -0.1421
    1W        W58284   4.585   9.450   0.503 -0.0213  0.0204 -0.1041
    1W        W58285  11.447  23.937   0.584 -0.6233  0.2438  0.0558
    1W        W58286   2.270  28.499   7.349  0.2356 -0.2356 -0.0450
    1W        W58287   7.174   8.546   8.809  0.0077  0.3264  0.0639
    1W        W58288  10.262  24.549   1.649 -0.2517 -0.0574  0.0941
    1W        W58289  26.015   0.356   7.929 -0.1126 -0.0235  0.1892
    1W        W58290  28.992  10.023   0.179 -0.0258  0.4214  0.2762
    1W        W58291  24.066  28.342   2.006 -0.0718 -0.4159  0.1605
    1W        W58292  21.389  17.445   0.793  0.0012  0.0429  0.1566
    1W        W58293  13.259   1.599   3.176 -0.1205  0.1448 -0.0743
    1W        W58294   0.354  27.076   1.329 -0.1906 -0.1725 -0.4325
    1W        W58295   5.496  22.883   0.147 -0.0629 -0.0863  0.1505
    1W        W58296  24.609   3.023   6.500  0.2947  0.1755 -0.3608
    1W        W58297  21.940  13.162   8.584  0.1844 -0.0316 -0.0894
    1W        W58298  19.077  25.374   6.428 -0.2568  0.0071  0.0260
    1W        W58299   6.651  17.619   7.067  0.0273  0.2137 -0.2282
    1W        W58300  17.181  21.984   1.233  0.1243  0.1292 -0.1238
    1W        W58301  26.843  20.767   7.004  0.2481  0.3249 -0.0671
    1W        W58302   1.679  14.994   7.922  0.1922 -0.0012 -0.2807
    1W        W58303   1.226   4.195   1.133  0.0689  0.0299 -0.2177
    1W        W58304   0.547  15.429   8.185 -0.0443 -0.1166  0.0109
    1W        W58305  21.652  10.845   2.351  0.4663 -0.1470  0.2436
    1W        W58306  15.937  13.442   9.067 -0.2601  0.1179  0.0846
    1W        W58307   6.126   1.472   2.921 -0.1779 -0.1385  0.1858
    1W        W58308   0.438  20.883   5.880 -0.2420  0.0119  0.1086
    1W        W58309   9.750  21.675   9.098  0.2491  0.0876 -0.0021
    1W        W58310   3.661   3.021   6.644 -0.0713 -0.2501  0.0105
    1W        W58311  13.587  15.069   8.386 -0.0486 -0.1700 -0.0575
    1W        W58312   7.733  23.790   6.271  0.1123  0.0987 -0.2652
    1W        W58313  10.399  19.962   7.658  0.1862  0.1183  0.1516
    1W        W58314   2.306  29.094   0.221  0.1069 -0.0546  0.0682
    1W        W58315   2.187   8.672   9.527 -0.0837 -0.1287 -0.0254
    1W        W58316   4.274  15.183   7.933  0.0959  0.0144 -0.0146
    1W        W58317   4.863  22.075   0.215  0.0002 -0.1343  0.0487
    1W        W58318   4.218  13.957   6.980  0.0494 -0.1098 -0.0925
    1W        W58319   8.854  15.396   7.997  0.1171 -0.0709 -0.1088
    1W        W58320  22.588  18.727   9.007 -0.0540 -0.1746  0.0964
    1W        W58321  20.464  22.789   1.525 -0.1965  0.2037 -0.1414
    1W        W58322  26.857  23.614   7.724  0.3797  0.1034 -0.5099
    1W        W58323  17.749   3.215   8.007 -0.3095 -0.0789  0.0599
    1W        W58324  27.907   3.738   6.106 -0.3691  0.0559  0.0400
    1W        W58325  29.333   2.419   3.055 -0.0502  0.2613 -0.2609
    1W        W58326  11.580   2.633   2.032  0.0357  0.1294 -0.0377
    1W        W58327   6.966  23.541   1.301  0.2047  0.2300  0.0546
    1W        W58328  16.275   9.766   2.028 -0.0812  0.0307  0.1987
    1W        W58329   3.656   8.876   1.703  0.0138  0.1747 -0.1871
    1W        W58330  19.682  25.790   7.546 -0.1542  0.0640 -0.0536
    1W        W58331   4.841  23.634   6.453  0.0234  0.0608  0.0190
    1W        W58332   7.438   0.467   8.200 -0.1778  0.0767  0.0008
    1W        W58333  24.032   0.960   0.347 -0.0037 -0.2886 -0.1256
    1W        W58334   5.170  26.849   1.652 -0.0651 -0.2255 -0.1253
    1W        W58335  17.547   6.774   3.099  0.0713 -0.0674  0.2799
    1W        W58336  25.152  19.230   7.414  0.2181 -0.1827  0.0440
    1W        W58337  20.663  28.343   2.032 -0.0418  0.1249  0.2093
    1W        W58338  18.636  29.277   9.674  0.4640 -0.3603  0.1452
    1W        W58339  21.642  19.997   9.305 -0.3207  0.0716 -0.3085
    1W        W58340  14.805  28.448   9.088  0.4050 -0.1481 -0.1607
    1W        W58341  28.445   5.796   9.154 -0.0691  0.0667  0.2729
    1W        W58342  24.738  15.610   7.161  0.1661  0.1293 -0.2907
    1W        W58343  26.473  19.267   2.501  0.1595 -0.2853  0.1270
    1W        W58344  24.624  13.425   9.186  0.2649 -0.0758 -0.1090
    1W        W58345   4.585  15.574   1.812 -0.2410 -0.4135 -0.0492
    1W        W58346  29.236   0.700   2.181  0.2122 -0.0701 -0.0628
    1W        W58347   6.077  16.967   8.570 -0.0340  0.1051 -0.0162
    1W        W58348  21.610  28.921   9.059  0.2489  0.3445 -0.1519
    1W        W58349  20.054  21.159   1.396 -0.3128  0.0979 -0.2045
    1W        W58350   0.683   0.589   0.098  0.1183 -0.1236  0.0450
    1W        W58351  17.762  25.906   6.903 -0.0059 -0.4228  0.2065
    1W        W58352   6.400   7.084   1.786  0.0899 -0.1026  0.1096
    1W        W58353  22.453  27.152   6.245  0.1785 -0.1307  0.3249
    1W        W58354   4.695   6.681   2.232 -0.0153  0.0425 -0.2513
    1W        W58355   0.954  25.194   0.751  0.0751  0.1156 -0.2473
    1W        W58356   4.082  20.635   0.612 -0.1329 -0.1774 -0.2595
    1W        W58357  17.635  12.467   8.546 -0.2464 -0.1291 -0.0359
    1W        W58358   8.989  13.271   2.395 -0.0019  0.3344 -0.3425
    1W        W58359  24.246  11.491   0.729 -0.0815  0.0719  0.0644
    1W        W58360   7.541  22.592   7.648  0.1739 -0.1119 -0.0575
    1W        W58361  28.827  19.711   7.375 -0.3109 -0.0628 -0.0766
    1W        W58362  17.925  22.008   9.459 -0.0298  0.4419  0.0748
    1W        W58363   2.261  26.421   1.023 -0.0031 -0.3314  0.2060
    1W        W58364   2.842  27.797   7.686 -0.0643 -0.1134 -0.4144
    1W        W58365  27.668  19.821   2.404 -0.3040 -0.0480  0.1298
    1W        W58366  13.485  16.667   2.726 -0.0562 -0.1213  0.1205
    1W        W58367  13.152  28.022   1.349  0.0609  0.0118  0.1313
    1W        W58368   3.383   0.732   1.428 -0.0110  0.0331 -0.0320
    1W        W58369   9.174   4.638   1.070  0.1284  0.0325  0.0445
    1W        W58370  17.853   0.134   8.078 -0.4513  0.1283  0.2275
    1W        W58371   5.436   0.177   7.339 -0.2405 -0.2944 -0.3048
    1W        W58372   9.117  26.810   2.676  0.1732  0.1034  0.1712
    1W        W58373  10.578   5.085   9.382 -0.2794 -0.0578 -0.2570
    1W        W58374   4.785  12.137   1.755 -0.0691  0.3531  0.0588
    1W        W58375  24.620   1.468   8.093  0.2807 -0.0369 -0.2394
    1W        W58376  29.247   7.830   0.449 -0.0516 -0.0355  0.0428
    1W        W58377  10.464  26.431   7.604  0.0496 -0.0535  0.1424
    1W        W58378   9.616  22.750   7.028 -0.0287  0.3016  0.1117
    1W        W58379   2.337  24.092   8.316  0.2146 -0.0187  0.2829
    1W        W58380   0.561   3.665   5.987 -0.0930  0.0651  0.0606
    1W        W58381  10.158  16.470   8.437 -0.3662  0.2537  0.0291
    1W        W58382  15.237   5.618   0.485 -0.0957 -0.0797  0.1071
    1W        W58383   9.013  18.956   6.217  0.0912 -0.0925 -0.2660
    1W        W58384   1.673  22.649   6.721  0.1124 -0.0043 -0.2138
    1W        W58385  12.562  11.160   2.211 -0.0943 -0.0614 -0.0381
    1W        W58386  19.419  12.658   7.679  0.4064 -0.1222 -0.1331
    1W        W58387  29.354  24.905   0.695 -0.1573 -0.0261  0.0707
    1W        W58388  12.655  15.309   0.896 -0.2315  0.0102 -0.0854
    1W        W58389   3.351   1.512   8.243 -0.0484  0.1624  0.1915
    1W        W58390   0.670  26.642   2.192 -0.2648  0.1733  0.1478
    1W        W58391  14.013  24.690   1.481  0.0671 -0.0598 -0.0834
    1W        W58392   5.613  23.626   6.586 -0.0769  0.1853  0.5435
    1W        W58393  16.978   4.367   0.075  0.0774  0.2771  0.0422
    1W        W58394  15.996  18.291   3.015 -0.0050 -0.1718 -0.0417
    1W        W58395  11.812   0.780   0.937 -0.2024  0.5011  0.2444
    1W        W58396   2.063  28.787   7.702 -0.1187 -0.1321 -0.1095
    1W        W58397  20.917   7.101   8.505 -0.0467 -0.0711  0.1897
    1W        W58398   8.080  22.923   7.962 -0.1367 -0.1890 -0.3016
    1W        W58399   7.628  29.254   7.225 -0.2138 -0.2134  0.4020
    1W        W58400  20.732   1.899   7.429  0.1297  0.2005  0.2193
    1W        W58401  15.715  10.032   8.985  0.2379 -0.1871  0.1044
    1W        W58402  26.850  17.439   1.132  0.1259 -0.2597 -0.4592
    1W        W58403  24.490  13.427   7.373  0.0643 -0.3141  0.1988
    1W        W58404  29.081   2.842   2.762 -0.0864  0.0790 -0.0611
    1W        W58405   5.335  14.546   8.582 -0.1198  0.0123 -0.1422
    1W        W58406  14.572  20.131   0.029 -0.0061  0.0235 -0.0510
    1W        W58407  23.995  10.622   8.436 -0.3199  0.0751 -0.1457
    1W        W58408   4.575  20.238   1.307 -0.0721 -0.0472  0.3572
    1W        W58409  16.012  12.321   6.994  0.2721  0.1422 -0.1851
    1W        W58410   2.704  15.426   2.955  0.0444 -0.0743  0.0133
    1W        W58411   7.608  26.128   7.615  0.2420 -0.1711 -0.0610
    1W        W58412   9.113  28.498   8.062  0.0654  0.2896  0.0841
    1W        W58413  28.002  24.188   0.269 -0.0360 -0.3973  0.1961
    1W        W58414   0.806  21.506   5.783 -0.1108  0.4704  0.0800
    1W        W58415  20.946  12.336   9.389 -0.2678 -0.0444 -0.3895
    1W        W58416  15.473  25.167   0.111 -0.1229  0.2488  0.2524
    1W        W58417   3.565   5.840   8.311 -0.2762 -0.0861 -0.1204
    1W        W58418  17.669  20.895   2.764 -0.3211 -0.4161  0.0123
    1W        W58419  22.728  21.555   1.706 -0.2398  0.2477  0.0744
    1W        W58420  17.658   0.096   7.609  0.2063 -0.3072  0.3080
    1W        W58421  26.020  19.707   1.796  0.1098  0.3256  0.0301
    1W        W58422  18.053  25.040   9.166 -0.1229 -0.1905 -0.2467
    1W        W58423   6.626  23.620   5.496  0.2166  0.0040 -0.2516
    1W        W58424  12.361  10.431   7.734 -0.0571  0.1813 -0.1010
    1W        W58425   5.722  15.308   7.819 -0.3209 -0.0177 -0.0680
    1W        W58426  17.352  16.469   1.184 -0.0442  0.2734 -0.0589
    1W        W58427  10.500  22.624   2.466 -0.3766 -0.3278  0.3153
    1W        W58428   9.685  20.085   1.216 -0.0146  0.1054 -0.1650
    1W        W58429   4.287  26.730   9.168 -0.1326  0.0833  0.0114
    1W        W58430   9.930  26.061   6.494 -0.1523  0.1797 -0.0859
    1W        W58431   3.191  24.483   6.125 -0.5005  0.0360  0.1724
    1W        W58432  12.581  19.410   6.757  0.4281  0.3409 -0.0800
    1W        W58433   9.209   3.444   0.761  0.2949  0.0131 -0.0661
    1W        W58434  11.005   6.449   8.661 -0.0604  0.0265  0.1721
    1W        W58435  17.571   6.832   2.233 -0.0509 -0.2438  0.1699
    1W        W58436  25.028  24.313   6.619  0.2294  0.1318 -0.3787
    1W        W58437  21.405  16.025   0.842  0.1095 -0.0777 -0.4069
    1W        W58438  27.772  15.261   8.545  0.0632  0.0046 -0.1519
    1W        W58439   2.949   5.958   1.203 -0.0963 -0.1150  0.1075
    1W        W58440  16.058   3.400   1.772  0.0741 -0.1045  0.1143
    1W        W58441  27.233   2.029   1.688 -0.0107  0.1676  0.2523
    1W        W58442  13.341  12.089   2.342 -0.1994  0.0132 -0.0041
    1W        W58443   9.703  27.259   8.797 -0.2179 -0.3019 -0.1490
    1W        W58444  11.885   7.045   7.517  0.1860  0.0450 -0.1011
    1W        W58445  21.098   4.641   0.519  0.0446 -0.3258 -0.0802
    1W        W58446   2.877   2.574   8.545  0.2281  0.1645 -0.0078
    1W        W58447  17.753   4.669   9.485 -0.2972  0.0787  0.2191
    1W        W58448  18.405   3.507   9.188  0.4496  0.3553  0.0238
    1W        W58449  27.148  10.263   6.830  0.2218  0.1045  0.1441
    1W        W58450  28.122  22.682   3.201  0.0243 -0.1297  0.0140
    1W        W58451  13.740  28.372   3.990  0.1185 -0.3232  0.1811
    1W        W58452  23.383  20.903   3.831 -0.1923  0.3118 -0.1550
    1W        W58453  12.766  28.667   0.878  0.1026 -0.3573 -0.3053
    1W        W58454  15.495  28.860   9.650  0.3286  0.1898 -0.1397
    1W        W58455  24.525   3.165   2.320  0.0539  0.2062 -0.0547
    1W        W58456  26.773   9.228   0.992 -0.1386  0.0147 -0.1954
    1W        W58457  10.549   1.756   8.349 -0.0753 -0.2511  0.2576
    1W        W58458   0.326   7.496   1.486  0.0397  0.1502 -0.0019
    1W        W58459  25.691   8.719   7.615  0.0248 -0.4297 -0.1211
    1W        W58460   3.043  24.564   2.876 -0.2074  0.1812  0.3207
    1W        W58461  18.865  18.883   1.963  0.1283  0.2024  0.3079
    1W        W58462  16.178  29.139   3.106 -0.2377 -0.0751  0.2518
    1W        W58463   9.597  20.961   6.850 -0.3443  0.2468 -0.2155
    1W        W58464  21.823  25.715   1.873  0.0414  0.0461  0.0085
    1W        W58465  15.981  23.753   9.207 -0.4627 -0.1467  0.2026
    1W        W58466  28.054   6.195   7.395 -0.2191  0.0829  0.1649
    1W        W58467  10.229   6.905   9.563 -0.0567 -0.0650  0.0088
    1W        W58468  26.110   5.878   6.755 -0.1540  0.0657 -0.2278
    1W        W58469  12.537  18.796   1.357  0.1000  0.1815  0.0497
    1W        W58470  23.584  11.716   8.638  0.0610 -0.1238  0.2084
    1W        W58471  11.132  28.848   4.482  0.0651 -0.4131 -0.0913
    1W        W58472  27.176  12.993   9.457 -0.0207  0.0879  0.1055
    1W        W58473  21.705   1.731   1.469 -0.1040 -0.1947 -0.2136
    1W        W58474  12.677   8.194   0.567 -0.0237 -0.1467 -0.0118
    1W        W58475   5.176  25.485   1.238  0.0536  0.2022 -0.1971
    1W        W58476  26.387  26.396   0.936 -0.0317 -0.1891 -0.1098
    1W        W58477  20.484  19.087   0.564 -0.1837  0.5077  0.1015
    1W        W58478  23.147  23.964   9.053 -0.1522 -0.1023 -0.2097
    1W        W58479   2.345  21.424   0.879 -0.0865 -0.1249  0.0929
    1W        W58480  15.734  13.204   8.001 -0.0811  0.0882 -0.1392
    1W        W58481  15.246  17.067   0.492  0.1463 -0.1305 -0.2506
    1W        W58482  23.762  17.413   1.470  0.0495 -0.2405  0.2807
    1W        W58483   5.113  19.061   6.561  0.2159  0.1197  0.2824
    1W        W58484   0.485  13.731   2.539  0.1111 -0.0351  0.0695
    1W        W58485  12.414  22.250   1.240 -0.1317  0.1561 -0.1544
    1W        W58486  23.955   7.378   2.679 -0.0499  0.1493 -0.2006
    1W        W58487  15.006   9.673   8.618 -0.0164  0.3547 -0.0438
    1W        W58488  14.955   7.918   9.060  0.3176  0.0637  0.3024
    1W        W58489   0.627  10.759   0.410  0.2125  0.1559  0.0949
    1W        W58490  20.836   0.541   9.400 -0.1122 -0.1388 -0.1326
    1W        W58491   2.728  10.220   6.351  0.3914 -0.2372  0.1940
    1W        W58492   4.338  26.380   8.759 -0.3209 -0.2957 -0.0435
    1W        W58493   2.877   8.273   1.969 -0.2603  0.1492 -0.1391
    1W        W58494  21.806  22.337   7.967  0.0102 -0.0811 -0.1445
    1W        W58495  16.126  13.450   9.596 -0.0476 -0.0276  0.1391
    1W        W58496   2.678   4.031   6.560  0.0011  0.3936  0.0069
    1W        W58497   6.983  20.312   8.881 -0.2075 -0.0527 -0.1254
    1W        W58498  18.606  23.943   2.263  0.0853  0.1955  0.2058
    1W        W58499  20.044  23.849   7.500  0.0379  0.2272 -0.1892
    1W        W58500  22.991   2.539   2.201  0.3737 -0.1428  0.0274
    1W        W58501   0.682  15.886   1.899  0.1216  0.0983  0.0196
    1W        W58502  22.433   8.049   2.516  0.0771 -0.2473  0.1124
    1W        W58503  20.765  18.884   0.935 -0.2384  0.3326 -0.0998
    1W        W58504  10.774  11.381   8.815 -0.1900  0.0054  0.2464
    1W        W58505  18.929  16.457   9.647 -0.0797 -0.0294 -0.2959
    1W        W58506  14.924  28.786   2.390 -0.1696  0.0090  0.2703
    1W        W58507  10.129  17.806   9.514 -0.0031 -0.2553  0.4323
    1W        W58508  10.491   7.203   1.451  0.0835 -0.1801 -0.2468
    1W        W58509   5.746  16.457   0.175 -0.0144  0.0219 -0.1254
    1W        W58510   4.716  24.321   2.575  0.2328 -0.0521 -0.4262
    1W        W58511  22.563  24.909   7.560  0.3258  0.0674 -0.0599
    1W        W58512  12.777  22.488   6.756 -0.0479 -0.2474 -0.0721
    1W        W58513  12.398   3.063   0.011 -0.4261  0.0236 -0.0206
    1W        W58514  17.631   0.307   0.752 -0.0244  0.1792  0.0801
    1W        W58515   1.419  25.567   9.668 -0.2723  0.1550  0.0190
    1W        W58516   0.845  12.661   7.197  0.0083  0.0159  0.0348
    1W        W58517  11.604  24.883   8.279 -0.2354 -0.0760  0.0011
    1W        W58518  21.036   2.704   6.745 -0.0113 -0.0049  0.1173
    1W        W58519  26.312  10.289   6.123  0.0307  0.0232  0.5466
    1W        W58520  22.881  22.881   9.269  0.0658  0.0373 -0.1241
    1W        W58521   4.539  17.091   6.661 -0.1755 -0.0920 -0.0084
    1W        W58522  17.813   7.777   8.800  0.3079  0.1191  0.0763
    1W        W58523  29.264   6.768   0.170 -0.1643  0.0750  0.0507
    1W        W58524  11.872   4.164   0.710  0.0792  0.0253 -0.2567
    1W        W58525  24.260  22.241   0.080  0.2146 -0.0250 -0.1247
    1W        W58526   3.805   1.269   8.358  0.2142  0.1038 -0.1397
    1W        W58527   2.973  16.087   1.665  0.1565 -0.3645  0.0863
    1W        W58528   1.965  20.503   7.601  0.0586  0.2128  0.0045
    1W        W58529  22.433  11.379   1.649 -0.0351  0.0958 -0.0918
    1W        W58530   9.271  15.196   7.181  0.2287  0.0255 -0.0514
    1W        W58531   1.231  14.758   7.043 -0.0877 -0.0698 -0.0063
    1W        W58532  28.445   4.032   8.759 -0.0237 -0.0661  0.2884
    1W        W58533  29.331  19.574   0.752 -0.3370 -0.1091  0.1450
    1W        W58534   2.635  22.862   7.883 -0.0045 -0.3443 -0.0254
    1W        W58535   2.720  27.390   9.636  0.2374  0.1150  0.3621
    1W        W58536  21.899  23.908   8.190 -0.1937 -0.0932 -0.1229
    1W        W58537   6.708   0.773   7.836 -0.0433 -0.2912  0.1032
    1W        W58538  13.705  27.491   8.068 -0.0479 -0.1180 -0.3579
    1W        W58539  23.999   2.952   8.343  0.2514  0.2261  0.2265
    1W        W58540  14.580  25.491   1.633 -0.2229 -0.2480 -0.0978
    1W        W58541  27.285  24.598   7.699  0.2257 -0.0201 -0.0553
    1W        W58542  13.496  14.759   8.710  0.1215 -0.1412 -0.1431
    1W        W58543   9.136  19.178   2.011 -0.3868  0.0154 -0.1177
    1W        W58544   4.953   1.489   2.913  0.2863 -0.2348 -0.0534
    1W        W58545  23.894   6.330   0.983  0.0877 -0.1068  0.3815
    1W        W58546   7.219  14.888   1.226  0.0913 -0.1352 -0.1002
    1W        W58547   6.368  28.819   3.077  0.0026  0.1303  0.1164
    1W        W58548  22.212   4.149   9.323 -0.0064 -0.2186 -0.1877
    1W        W58549  12.778  22.186   0.859  0.0889 -0.2578 -0.3446
    1W        W58550   3.385  17.674   1.770  0.0969  0.1138 -0.0826
    1W        W58551  16.109   3.326   8.593  0.0508  0.1317 -0.0950
    1W        W58552   5.147   3.719   7.686 -0.0393  0.3947 -0.4781
    1W        W58553  14.163   7.430   1.274 -0.3217  0.0755  0.1212
    1W        W58554  16.105   6.619   8.560 -0.1508 -0.3933 -0.2279
    1W        W58555  25.557  17.839   1.113 -0.3993  0.1141  0.1758
    1W        W58556  28.244  13.589   9.119 -0.1612 -0.2062 -0.2454
    1W        W58557   1.958   0.498   9.180 -0.0193  0.1693  0.1505
    1W        W58558   2.130  21.049   2.579 -0.1763  0.0004 -0.0650
    1W        W58559  29.330   9.140   6.321 -0.0689  0.1393 -0.0513
    1W        W58560  19.093  29.362   8.194 -0.1981  0.0554 -0.0278
    1W        W58561   0.403  11.627   6.553 -0.1637  0.0689 -0.0562
    1W        W58562  11.110   8.135   8.438  0.0276  0.0088 -0.0353
    1W        W58563   3.348   8.253   8.823 -0.1199 -0.2156  0.1850
    1W        W58564   8.965  19.663   2.238  0.0695  0.1162  0.2448
    1W        W58565  13.877  28.623   7.643 -0.2270 -0.0355 -0.0167
    1W        W58566  28.344   7.888   1.426 -0.1583 -0.2944  0.0305
    1W        W58567  18.742   3.210   2.600  0.1859  0.0042 -0.0650
    1W        W58568  16.548  13.511   7.414  0.1988  0.1362 -0.2247
    1W        W58569   1.024  12.133   8.588 -0.1750 -0.0337  0.3051
    1W        W58570   1.054   4.339   9.005 -0.0726  0.0726 -0.0587
    1W        W58571  18.416   4.220   2.837 -0.0549  0.0243 -0.3637
    1W        W58572  11.040   1.093   1.570  0.0030 -0.0800  0.0295
    1W        W58573  12.243   1.486   8.935 -0.0418 -0.4311  0.0036
    1W        W58574   2.393  16.250   2.457  0.1604  0.1298  0.0605
    1W        W58575  16.646  17.929   7.175  0.1127 -0.0820 -0.0809
    1W        W58576   7.019   9.444   7.149  0.1751 -0.0113 -0.1664
    1W        W58577   6.405  14.123   0.586 -0.1678  0.2314 -0.0462
    1W        W58578   0.841  19.149   1.343  0.1599 -0.1780 -0.2043
    1W        W58579  10.347  17.285   9.611 -0.0396  0.0490 -0.2441
    1W        W58580  27.968  10.853   1.529  0.1372 -0.1089  0.0621
    1W        W58581   8.805  19.212   7.082  0.2219 -0.0622 -0.0462
    1W        W58582  21.301   1.616   9.479 -0.1968  0.2224  0.1321
    1W        W58583  24.537  20.992   2.052  0.1258 -0.1151 -0.0554
    1W        W58584  13.770   0.344   4.634 -0.1462 -0.1599 -0.1821
    1W        W58585  14.300  26.516   1.113 -0.0926 -0.1422  0.0644
    1W        W58586  27.318  11.831   8.971  0.0868 -0.3017 -0.4635
    1W        W58587  24.970  28.979   7.267 -0.1736  0.2159  0.1389
    1W        W58588   7.463   8.826   8.457  0.0875 -0.1228 -0.2410
    1W        W58589  13.545  11.097   1.863 -0.0346 -0.1525  0.1650
    1W        W58590   5.240   9.941   0.388 -0.1832  0.1234 -0.0680
    1W        W58591  23.480   2.152   7.887 -0.0684 -0.1553  0.0467
    1W        W58592  25.114  13.150   7.407  0.0763 -0.0860 -0.1721
    1W        W58593  15.133   7.494   0.182  0.0869  0.0888 -0.1277
    1W        W58594  26.503  25.883   0.639  0.0334 -0.2750  0.2723
    1W        W58595  12.722   0.254   1.871  0.1373  0.2654 -0.1086
    1W        W58596  25.451  23.382   6.773  0.1645 -0.1824  0.1497
    1W        W58597   8.978  15.605   7.108  0.1222  0.1525 -0.1245
    1W        W58598  16.876  16.908   2.423  0.0616  0.3461  0.1975
    1W        W58599   9.632   4.315   3.378 -0.1392  0.1680 -0.0078
    1W        W58600  22.365   9.349   1.315 -0.2955 -0.0706 -0.0882
    1W        W58601   8.521  19.801   8.887  0.0637  0.1469 -0.1240
    1W        W58602   7.149  12.246   7.871 -0.2191 -0.2330 -0.1586
    1W        W58603   6.625  20.338   6.568  0.0718  0.1400 -0.0064
    1W        W58604  26.249  22.471   3.149  0.0645  0.2289 -0.1463
    1W        W58605  13.089  25.681   2.342  0.1441 -0.0089  0.5505
    1W        W58606  18.044  24.399   6.446  0.2343 -0.0794 -0.0441
    1W        W58607  13.624   3.379   0.621  0.0385  0.1438 -0.1750
    1W        W58608   9.822  13.788   1.184 -0.1804 -0.1442 -0.0966
    1W        W58609  11.637   9.896   8.312  0.1840  0.0079  0.2818
    1W        W58610  11.046   7.096   7.979 -0.2548 -0.2479 -0.0823
    1W        W58611  15.371  24.686   8.851 -0.0104 -0.2547  0.2113
    1W        W58612   0.309   1.468   8.330 -0.0252 -0.1436  0.3597
    1W        W58613  25.111   3.987   7.601 -0.1916 -0.0131 -0.1225
    1W        W58614   2.142  14.915   9.603 -0.1132 -0.2147 -0.2076
    1W        W58615  18.672  27.919   0.113 -0.1377  0.0871 -0.1835
    1W        W58616  24.262  14.344   8.491 -0.0869  0.0279 -0.0381
    1W        W58617  12.667   5.361   2.237 -0.0768 -0.0491  0.1816
    1W        W58618   2.942  25.140   9.377 -0.1514 -0.1114 -0.1355
    1W        W58619  12.173  15.768   1.511  0.1704  0.0938  0.0080
    1W        W58620  12.973   4.480   1.752 -0.0298  0.0576  0.2143
    1W        W58621  17.653  25.469   1.012  0.0455 -0.3004  0.0814
    1W        W58622  22.245  23.939   8.620  0.0886 -0.0419  0.2271
    1W        W58623  23.056  22.607   8.506  0.0438  0.2086  0.2042
    1W        W58624   8.518  20.371   1.131  0.0400  0.1083 -0.0910
    1W        W58625  10.210  18.514   8.082 -0.0477  0.0395  0.1831
    1W        W58626  23.786  11.439   0.408 -0.1532 -0.0311 -0.1530
    1W        W58627  17.635  18.499   2.241  0.0495 -0.0083  0.1190
    1W        W58628  18.219  22.135   8.518 -0.1491  0.0547 -0.2125
    1W        W58629  14.415   8.203   2.905  0.2104  0.0398  0.2553
    1W        W58630  21.954  13.011   0.197  0.1307 -0.0323 -0.1558
    1W        W58631  27.453  29.022   8.672 -0.1195 -0.1507  0.0778
    1W        W58632  15.387  18.828   9.234 -0.1812  0.1879 -0.0368
    1W        W58633   2.177   4.648   9.675 -0.2578  0.2065  0.0154
    1W        W58634  20.947  21.439   8.217  0.1874 -0.1488 -0.0545
    1W        W58635  23.128   8.307   6.272 -0.2955  0.0932 -0.2552
    1W        W58636  27.576  19.240   6.427  0.0245 -0.0771  0.0988
    1W        W58637   9.263   3.981   3.666  0.1313 -0.2466 -0.1278
    1W        W58638  18.626  26.997   8.041  0.1715 -0.0703 -0.0893
    1W        W58639   3.461  23.174   7.564  0.0705 -0.0029 -0.0197
    1W        W58640   4.931   5.300   9.070 -0.1595  0.1520 -0.0733
    1W        W58641  27.268  11.562   8.553  0.2389  0.0103 -0.1548
    1W        W58642  18.054  18.294   8.514  0.1281 -0.0240 -0.0824
    1W        W58643  20.626   4.000   0.923 -0.0854 -0.0497  0.4005
    1W        W58644  28.940   3.383   2.768  0.1258  0.0987  0.0313
    1W        W58645  28.440   9.420   3.125 -0.5031 -0.1368 -0.0636
    1W        W58646   0.306  21.718   9.039  0.1609  0.1763  0.2040
    1W        W58647  27.748  13.960   5.755 -0.1393 -0.0476 -0.1715
    1W        W58648  10.093   9.913   0.602  0.0292  0.0590 -0.2248
    1W        W58649   7.879   5.960   8.280  0.0507 -0.3064  0.0600
    1W        W58650  21.229   9.061   7.930  0.1447 -0.1394  0.0363
    1W        W58651   1.171  20.475   2.558 -0.1174 -0.0530 -0.0308
    1W        W58652  19.606   8.113   1.321  0.0484  0.1852 -0.1691
    1W        W58653  19.466   2.257   6.992  0.1658  0.0910  0.1369
    1W        W58654   0.651  15.694   0.595 -0.0657  0.1242  0.0195
    1W        W58655  17.171  13.133   6.753 -0.1727  0.1688  0.0073
    1W        W58656  18.340   4.152   0.330  0.1416 -0.0253  0.0174
    1W        W58657  19.066   4.983   1.864  0.2426  0.0502 -0.0625
    1W        W58658   0.645  20.411   9.689  0.3001  0.0073 -0.1145
    1W        W58659  28.397   2.584   7.295 -0.0596 -0.1007 -0.0569
    1W        W58660  15.019  26.021   0.705 -0.1733  0.0059  0.2563
    1W        W58661  10.002  15.079   9.132  0.1202 -0.1583  0.0705
    1W        W58662   2.512  27.483   8.622  0.2259  0.5438 -0.2019
    1W        W58663  29.001  17.295   2.538 -0.3232  0.0872  0.2676
    1W        W58664  28.112   8.606   0.786 -0.2184 -0.3654 -0.1639
    1W        W58665  26.227  28.340   7.092  0.3112 -0.1277  0.0240
    1W        W58666  18.606  19.991   1.615 -0.0429  0.0722 -0.1435
    1W        W58667   5.631  22.282   7.155  0.0928 -0.2653  0.0314
    1W        W58668   4.665   7.757   0.703  0.0540 -0.2627  0.2396
    1W        W58669  28.615   8.108   8.665  0.0118  0.0949 -0.3106
    1W        W58670   9.964  23.828   6.918  0.1057  0.3565  0.0119
    1W        W58671   5.143  11.563   0.567  0.0979  0.0170 -0.0649
    1W        W58672  10.396   4.942   7.111 -0.0848 -0.2410 -0.0422
    1W        W58673   8.012   4.095   2.593 -0.2197  0.1372 -0.0774
    1W        W58674   0.478  17.105   0.987 -0.1178  0.1257  0.0102
    1W        W58675   6.640   7.862   3.247 -0.0274  0.0161  0.0250
    1W        W58676  19.435  25.412   7.712  0.2296  0.0176 -0.0002
    1W        W58677   1.473  11.251   1.923  0.3149  0.0949 -0.0138
    1W        W58678  19.773   6.926   8.296 -0.2413 -0.0108  0.1227
    1W        W58679  18.648  18.688   7.239  0.1157  0.1426  0.1959
    1W        W58680  14.477  28.974   1.522  0.1700  0.0620 -0.1961
    1W        W58681  14.310  15.065   0.807  0.1901  0.0454  0.2271
    1W        W58682  21.570  11.261   6.930 -0.1684  0.0940  0.2316
    1W        W58683   3.930  26.628   9.503 -0.0800  0.1257  0.1312
    1W        W58684  15.594   0.549   2.243 -0.0652 -0.0764  0.0726
    1W        W58685  28.147  21.374   0.746  0.1270  0.0654  0.1815
    1W        W58686  16.128  11.249   1.801  0.1532  0.2303 -0.0991
    1W        W58687  13.675  23.018   0.169  0.0822  0.1061 -0.3396
    1W        W58688   9.971  28.466   8.063  0.1924 -0.2877  0.1328
    1W        W58689  29.171  22.182   1.805 -0.0712  0.1174 -0.1168
    1W        W58690  25.186   7.055   7.544 -0.0523 -0.0370  0.2635
    1W        W58691   3.247   0.554   1.870 -0.3040 -0.3007 -0.3255
    1W        W58692  21.720   8.219   7.934 -0.3042 -0.3320  0.1592
    1W        W58693  27.689  27.913   8.308  0.2804 -0.0123  0.3689
    1W        W58694  21.764  23.202   2.765  0.1223  0.1800  0.1153
    1W        W58695  18.166   2.835   2.012  0.1779  0.1072 -0.0791
    1W        W58696  15.801  21.831   1.868  0.1077 -0.1380  0.2502
    1W        W58697  22.749  11.723   9.568 -0.0496 -0.0969 -0.2405
    1W        W58698   4.349  26.897   8.703  0.1779  0.2811  0.0627
    1W        W58699  10.603  13.292   7.202 -0.2212  0.0328 -0.4481
    1W        W58700   0.048  23.008   9.143 -0.0282 -0.4395 -0.1550
    1W        W58701  10.948  24.141   9.157  0.1555  0.2073 -0.0101
    1W        W58702  11.414   2.055   0.993  0.1213  0.1335  0.0035
    1W        W58703   1.803  24.833   8.565  0.2751  0.0417  0.1561
    1W        W58704  19.376  13.896   0.057  0.1900  0.1362 -0.0336
    1W        W58705  10.486  21.993   1.820 -0.0374 -0.2321  0.0258
    1W        W58706  23.312  16.804   1.084 -0.0676 -0.2010 -0.2490
    1W        W58707   6.993  26.738   0.143  0.0542 -0.1498  0.0562
    1W        W58708  25.127   6.378   8.079  0.0636  0.0298 -0.5046
    1W        W58709  16.643  14.468   7.777 -0.1347  0.0741 -0.0401
    1W        W58710  27.451   0.035   0.156 -0.1069  0.2479 -0.2675
    1W        W58711  22.210  26.941   8.223 -0.1824 -0.2006 -0.2621
    1W        W58712  15.768  13.554   8.373  0.1610  0.1009  0.0088
    1W        W58713  26.336   5.491   1.165 -0.1256  0.1574 -0.1780
    1W        W58714   0.488   2.187   0.788 -0.0655  0.3803 -0.0963
    1W        W58715  12.057  24.562   9.170  0.2454  0.3031 -0.1101
    1W        W58716   2.027  23.051   2.017  0.0714  0.3221  0.1932
    1W        W58717   5.707  28.738   8.463 -0.1321 -0.2785 -0.0514
    1W        W58718   7.835  23.655   8.381  0.2140 -0.0963 -0.0754
    1W        W58719  24.550   7.660   1.867 -0.2670  0.0339  0.0308
    1W        W58720  19.476  14.400   8.102 -0.0338  0.3057  0.2470
    1W        W58721   7.078  20.004   7.930  0.1887 -0.0075 -0.1671
    1W        W58722  26.745   4.153   2.142 -0.4379 -0.3786  0.1212
    1W        W58723   6.507   2.276   2.808 -0.1453 -0.0579  0.2934
    1W        W58724  15.886  11.457   7.840 -0.1410 -0.0926 -0.0855
    1W        W58725   3.758  20.636   1.459  0.1305 -0.2344  0.3173
    1W        W58726  22.815  12.562   6.647 -0.1082  0.2321  0.0228
    1W        W58727  21.357   6.724   2.438 -0.0481  0.4045  0.1183
    1W        W58728   4.762   0.016   2.413 -0.0622  0.0790  0.2623
    1W        W58729   9.105  15.024   1.204  0.0989  0.0605  0.0591
    1W        W58730  15.848  27.820   1.431 -0.3094  0.0025  0.0526
    1W        W58731  27.388  17.355   8.529  0.3572 -0.1629  0.1423
    1W        W58732  11.756  28.785   8.077  0.0208 -0.1673 -0.3378
    1W        W58733  21.493  19.344   1.483 -0.0866  0.1586  0.2515
    1W        W58734   0.848  24.347   0.761  0.0092  0.0266  0.0296
    1W        W58735  16.721  17.128   9.356 -0.0335 -0.0921  0.1221
    1W        W58736  27.281   9.141   8.785 -0.1210  0.0303 -0.0278
    1W        W58737  19.320   8.902   7.283  0.0629 -0.0588 -0.0330
    1W        W58738  25.676  15.744   1.407  0.0305  0.0079  0.0618
    1W        W58739   1.566  20.291   1.325  0.1900  0.2417 -0.0104
    1W        W58740  26.337   4.417   6.134 -0.0440  0.0277  0.0815
    1W        W58741   2.057   4.305   8.208 -0.3315 -0.0830  0.0678
    1W        W58742  22.481  24.977   1.434 -0.3534 -0.1086 -0.2216
    1W        W58743  18.259  23.893   9.327 -0.0725  0.1902  0.4809
    1W        W58744  15.721  14.929   7.833 -0.1485 -0.0983  0.1854
    1W        W58745  23.154   7.044   8.931  0.0291 -0.0282  0.1005
    1W        W58746  10.960  19.404   8.668  0.0226  0.0403  0.0301
    1W        W58747   7.706  20.696   1.295  0.0446  0.0857  0.0482
    1W        W58748  11.845  13.030   8.583 -0.2003 -0.2501 -0.1793
    1W        W58749  10.153   8.004   9.468 -0.1226  0.0235  0.2240
    1W        W58750  21.203  25.580   0.270 -0.2243 -0.0653 -0.0296
    1W        W58751  11.453  20.801   1.808  0.3049 -0.3093 -0.2203
    1W        W58752   2.532  21.755   2.858 -0.2764 -0.0258  0.0216
    1W        W58753  18.082  20.568   1.896 -0.0069  0.0258  0.0105
    1W        W58754   4.871   6.401   6.749  0.0736  0.1896 -0.2324
    1W        W58755  23.592  24.460   8.366  0.1097 -0.0225 -0.1037
    1W        W58756   3.475   1.250   9.631 -0.3567 -0.1920  0.2391
    1W        W58757  23.665   4.784   6.764 -0.0239 -0.0600  0.0946
    1W        W58758   6.390  27.960   9.344 -0.1535  0.0651  0.0259
    1W        W58759  21.310  12.518   7.271 -0.2161  0.1578  0.1445
    1W        W58760  13.489   9.536   9.238  0.0558  0.0721 -0.3159
    1W        W58761  18.875  15.658   0.332 -0.2640 -0.0795  0.0396
    1W        W58762   5.831   2.247   2.129  0.1987  0.3211 -0.0787
    1W        W58763  17.242  18.085   2.093  0.0787 -0.0058  0.0888
    1W        W58764  25.673   2.185   6.579 -0.0213  0.1106  0.2463
    1W        W58765  16.753   8.934   1.828  0.0471 -0.1748  0.0310
    1W        W58766  22.433   9.978   9.267 -0.1118 -0.0194  0.1124
    1W        W58767  11.785   4.905   0.585  0.1603 -0.0792  0.1302
    1W        W58768  25.560  23.033   8.891  0.1325  0.1138  0.0147
    1W        W58769  23.265   2.383   1.671 -0.4379 -0.1696  0.0611
    1W        W58770  27.972  29.326   2.202  0.4325  0.0742 -0.0656
    1W        W58771  15.098  18.558   9.514  0.0130  0.0454  0.0666
    1W        W58772  27.752  13.539   6.588 -0.0854  0.2583  0.0361
    1W        W58773  11.931  14.908   7.575 -0.0995  0.1463 -0.0318
    1W        W58774   0.832  17.970   2.991 -0.0944 -0.1306 -0.3786
    1W        W58775  20.435  12.869   8.364  0.1661  0.2271 -0.0121
    1W        W58776  15.152   9.056   7.658 -0.0534  0.2811 -0.1821
    1W        W58777  14.263  10.233   9.297 -0.2168 -0.3437 -0.0701
    1W        W58778  14.855  11.197   7.980  0.2649 -0.2333  0.0634
    1W        W58779  18.819  24.076   1.791 -0.2207  0.0574  0.1093
    1W        W58780   5.717  12.589   2.063  0.0804 -0.0750 -0.0746
    1W        W58781  24.002  13.565   7.041 -0.3158 -0.2350 -0.1166
    1W        W58782  20.652  18.561   8.308  0.1678  0.0427  0.0543
    1W        W58783  25.253   8.747   7.940 -0.2696  0.2329 -0.1465
    1W        W58784  11.950  15.355   9.469  0.0443  0.1421 -0.2339
    1W        W58785  16.513  16.064   1.355  0.1288 -0.2470  0.0555
    1W        W58786   2.111  10.335   8.318  0.0342 -0.0847 -0.0182
    1W        W58787   9.800   6.407   7.860 -0.0117 -0.1396 -0.3126
    1W        W58788   7.968  17.192   6.398 -0.1363 -0.0405 -0.0760
    1W        W58789   6.633  23.116   6.407  0.1507 -0.2257 -0.0448
    1W        W58790  10.726   6.209   2.272 -0.3655 -0.2464  0.2000
    1W        W58791  15.835  26.445   1.281 -0.0571 -0.2894  0.0978
    1W        W58792   5.108  26.657   0.506  0.1982 -0.2186 -0.2023
    1W        W58793  17.851  27.058   0.902 -0.0971 -0.0935 -0.2412
    1W        W58794  18.515  25.828   0.662  0.4570 -0.0658 -0.0747
    1W        W58795  13.959   3.129   7.217  0.1706 -0.0153  0.1696
    1W        W58796  27.895   3.955   8.014 -0.0059  0.1356 -0.1295
    1W        W58797   7.609  13.883   7.165  0.2232  0.0115  0.0122
    1W        W58798   1.856  10.521   7.988  0.3230  0.0795 -0.0596
    1W        W58799   1.425  21.461   0.850  0.2034  0.0440 -0.0369
    1W        W58800  16.885  19.149   2.377  0.3531  0.2290 -0.0276
    1W        W58801   8.969   1.074   1.135  0.0138 -0.1303 -0.0690
    1W        W58802  21.627  17.284   1.346 -0.1079 -0.2024  0.3725
    1W        W58803   4.242  16.404   7.458  0.1755  0.0358 -0.1417
    1W        W58804   9.250   5.159   0.889 -0.1524 -0.0550  0.0586
    1W        W58805  27.084  28.689   7.278  0.1373 -0.1409 -0.0957
    1W        W58806   5.052  21.715   0.517 -0.0924 -0.1301 -0.0980
    1W        W58807  29.183  20.865   6.517  0.2906 -0.1056  0.1371
    1W        W58808   2.986   1.602   3.449 -0.1985  0.1220 -0.0902
    1W        W58809  26.816  22.738   7.733  0.1759 -0.0649  0.1027
    1W        W58810  26.397  17.321   1.446 -0.2239 -0.1620  0.0469
    1W        W58811  26.049  16.941   8.355  0.1512  0.0071 -0.2495
    1W        W58812  19.448   3.363   8.126 -0.0325 -0.1092 -0.1516
    1W        W58813  15.753  24.074   0.013 -0.1949  0.1197 -0.0617
    1W        W58814  28.924  14.928   6.524  0.1024 -0.1074  0.3051
    1W        W58815  15.133  28.463   2.705  0.0307 -0.1698 -0.1208
    1W        W58816   7.658  20.456   0.800  0.1400 -0.1335 -0.4415
    1W        W58817   1.802   5.370   5.879 -0.5594  0.1758  0.0203
    1W        W58818  24.006   9.254   2.123  0.3584 -0.3063 -0.1037
    1W        W58819  22.265   4.988   3.377  0.1212  0.1163 -0.1930
    1W        W58820  24.136  14.849   1.714 -0.1313  0.4133  0.0063
    1W        W58821   1.568  12.980   1.226 -0.0970 -0.0506  0.0901
    1W        W58822   6.673   7.483   8.434  0.0545 -0.3279  0.2496
    1W        W58823  24.257  11.585   6.323  0.4327 -0.3954 -0.1813
    1W        W58824  20.540  12.383   2.068 -0.1658  0.0410 -0.1207
    1W        W58825  29.143   1.191   2.346 -0.0633  0.1609  0.1102
    1W        W58826  11.227  10.906   2.436  0.0019 -0.0050  0.2643
    1W        W58827   5.337  13.776   8.829  0.0770  0.1850 -0.1767
    1W        W58828  21.856  27.636   8.100  0.0973  0.0796  0.2543
    1W        W58829  26.965  22.372   1.983 -0.1641 -0.1821  0.2384
    1W        W58830  15.989  24.151   1.885  0.0356 -0.1887 -0.1801
    1W        W58831   8.883  26.964   7.949 -0.0197 -0.1692  0.0807
    1W        W58832   0.822  16.929   9.020 -0.0786 -0.1915  0.1561
    1W        W58833   2.032   5.852   1.713  0.0069  0.1867 -0.3457
    1W        W58834  21.324  18.376   7.089 -0.2128  0.2361 -0.1739
    1W        W58835  13.662  27.781   3.894  0.2127  0.1644 -0.2438
    1W        W58836  25.398  26.009   9.105 -0.0962  0.1434 -0.0217
    1W        W58837  11.549   4.435   2.249  0.3101  0.0375 -0.1504
    1W        W58838   9.481   0.355   7.346  0.0616 -0.2327 -0.0859
    1W        W58839   4.512   8.648   1.303 -0.1106 -0.2171 -0.4858
    1W        W58840  25.046  27.138   3.724 -0.2426  0.2853 -0.1380
    1W        W58841  20.236  23.255   1.322  0.0053 -0.0317  0.1060
    1W        W58842  10.568  24.922   2.427 -0.1775 -0.1058  0.3081
    1W        W58843  16.311  18.350   9.168 -0.1141  0.3064 -0.2765
    1W        W58844  18.275   8.639   2.050  0.1651  0.1327 -0.2751
    1W        W58845  11.018  10.458   2.204  0.1352  0.0488  0.2755
    1W        W58846   8.292  23.040   1.998  0.0398  0.2825 -0.1393
    1W        W58847  23.512   4.568   9.283 -0.0122  0.0241  0.2796
    1W        W58848  18.894   5.535   9.654 -0.2356  0.1378  0.2141
    1W        W58849  16.986  11.497   8.713 -0.0595  0.1974  0.1855
    1W        W58850  19.431  21.007   0.287 -0.0429  0.0754 -0.4644
    1W        W58851   9.359  24.489   1.380 -0.3910  0.1286 -0.1235
    1W        W58852  10.009  25.199   1.202 -0.1006  0.0696 -0.1533
    1W        W58853   6.575  18.854   7.902 -0.2063  0.0379  0.0301
    1W        W58854   6.677  14.987   0.541  0.0657 -0.0438 -0.1421
    1W        W58855  19.057   0.479   1.394  0.0568  0.0193 -0.0516
    1W        W58856   6.827  28.006   2.900 -0.0593 -0.0301 -0.0421
    1W        W58857  22.269  24.280   2.422  0.0552 -0.0454  0.3035
    1W        W58858  24.795  14.540   5.172 -0.1415 -0.1118 -0.0583
    1W        W58859  18.350  28.799   7.883 -0.0781  0.0886  0.1887
    1W        W58860   1.635  13.010   8.764  0.0319 -0.1637  0.1306
    1W        W58861   4.998  21.754   1.619  0.0811 -0.1330 -0.2874
    1W        W58862  20.145   6.064   8.596  0.2078 -0.1795 -0.1264
    1W        W58863  11.466  17.529   6.939 -0.2767 -0.0257  0.0140
    1W        W58864   2.244   7.080   1.701  0.0384 -0.1574 -0.0923
    1W        W58865  21.942  14.633   1.918  0.0667 -0.0248 -0.1311
    1W        W58866  23.214  13.027   1.755  0.1767  0.1069 -0.1533
    1W        W58867  14.918   0.709   3.962 -0.1457 -0.3332 -0.2812
    1W        W58868  21.482  23.152   6.937  0.2960 -0.0538  0.2118
    1W        W58869  15.420   3.425   2.594  0.1739  0.1467  0.1636
    1W        W58870  19.019  26.968   6.860 -0.3271 -0.0082 -0.0398
    1W        W58871  21.346  19.286   2.812  0.1572  0.2127  0.1168
    1W        W58872   3.103  16.683   6.325  0.3375 -0.0587  0.0307
    1W        W58873   1.184  10.821   1.859 -0.1033 -0.1739 -0.2767
    1W        W58874  19.542  20.437   1.474  0.3280  0.0326 -0.2440
    1W        W58875  12.378   3.959   2.224 -0.2617  0.1088 -0.2952
    1W        W58876  21.679  26.693   0.622 -0.1184 -0.2399 -0.1081
    1W        W58877   1.357  22.573   8.959 -0.0712  0.1559  0.2963
    1W        W58878  22.412  12.400   9.038 -0.0614 -0.2390 -0.2981
    1W        W58879  18.786  16.559   7.254 -0.0456  0.0686  0.0088
    1W        W58880  28.626  14.872   6.035 -0.0233 -0.2876  0.2885
    1W        W58881  15.284   7.692   1.053 -0.0296  0.0354  0.1105
    1W        W58882  15.657  27.860   8.978  0.0161  0.1538 -0.1553
    1W        W58883   6.787  23.181   0.883 -0.1296 -0.0208  0.1132
    1W        W58884  20.484   2.281   1.047  0.1353  0.1417 -0.1124
    1W        W58885  16.140  22.086   8.099 -0.0471 -0.1741 -0.0071
    1W        W58886  18.955  27.391   3.809 -0.1709  0.0779 -0.3833
    1W        W58887  25.920  19.627   7.685 -0.0636  0.0181  0.3467
    1W        W58888  11.350  22.587   8.053 -0.3334 -0.4291  0.0667
    1W        W58889   9.180   2.118   8.233 -0.2271  0.1360 -0.0694
    1W        W58890  13.557  17.494   1.244 -0.0106  0.0811 -0.2018
    1W        W58891   4.000  15.871   0.548 -0.0159  0.1538  0.0729
    1W        W58892  18.581  13.041   1.463 -0.3218 -0.0428 -0.1207
    1W        W58893  13.835  20.541   0.680  0.0531 -0.3139  0.2718
    1W        W58894  18.014  15.568   0.452 -0.1148  0.0187 -0.0894
    1W        W58895  17.330   3.415   9.408  0.0377 -0.0637  0.0748
    1W        W58896  14.640   0.753   1.499  0.1163 -0.0804 -0.1021
    1W        W58897   4.115   6.936   9.594  0.1101  0.4376  0.0594
    1W        W58898   1.728   7.861   8.854 -0.1983  0.3631 -0.1415
    1W        W58899  16.609  15.836   9.262  0.0571 -0.1441  0.0674
    1W        W58900  26.297   0.959   7.480 -0.0755  0.1392 -0.2051
    1W        W58901   4.782  18.424   1.306  0.0855  0.0462  0.1833
    1W        W58902  16.668  25.306   1.043 -0.2234 -0.0950  0.1997
    1W        W58903  12.595  24.206   1.218 -0.4301  0.2466 -0.0676
    1W        W58904  19.998  24.904   8.398 -0.0275 -0.2544 -0.0440
    1W        W58905  22.851  23.586   1.915 -0.0277  0.0721  0.2397
    1W        W58906  22.382  21.208   7.329  0.1637 -0.3148  0.0648
    1W        W58907   9.314   0.265   1.686  0.3769  0.0896  0.0899
    1W        W58908  25.901  15.418   0.546 -0.1991 -0.2976  0.3781
    1W        W58909  13.113   4.962   7.829 -0.0614 -0.0786  0.3282
    1W        W58910  19.034  25.238   0.026 -0.1443  0.2129 -0.0063
    1W        W58911   3.698  10.335   1.106  0.5156 -0.0786 -0.1377
    1W        W58912   1.103  23.678   6.912  0.0862  0.1189 -0.1822
    1W        W58913  15.752   0.162   7.744 -0.0728 -0.3372 -0.2153
    1W        W58914   4.408   7.519   0.313  0.2972  0.0065 -0.3678
    1W        W58915  24.560  25.412   9.093 -0.0859 -0.0397 -0.1884
    1W        W58916  19.993   2.251   7.116  0.0472 -0.2692  0.0260
    1W        W58917   4.903  24.694   0.409  0.1237 -0.0656  0.0581
    1W        W58918  17.422  12.021   0.127 -0.1913  0.0672  0.0216
    1W        W58919  25.805  23.889   0.202 -0.2413 -0.2828  0.0898
    1W        W58920  27.913  15.271   9.037 -0.0643 -0.3550  0.0914
    1W        W58921  20.436  24.708   0.277  0.1178  0.3606  0.1782
    1W        W58922  19.792  28.107   1.854 -0.0823  0.2350 -0.1991
    1W        W58923  14.360  22.769   1.721  0.1933  0.0738 -0.3576
    1W        W58924  20.365  18.234   1.972 -0.3902 -0.0627 -0.3792
    1W        W58925   2.573  27.578   2.198  0.2037  0.1824 -0.0635
    1W        W58926  14.158  10.017   8.260  0.2487  0.2144 -0.1189
    1W        W58927   6.102   8.376   7.711  0.2420 -0.1992  0.0778
    1W        W58928  14.217   0.094   9.194  0.3408 -0.1680 -0.0648
    1W        W58929  10.438   4.401   8.641 -0.3474 -0.0359 -0.0168
    1W        W58930  19.256  19.006   8.542  0.1106 -0.1176  0.1584
    1W        W58931  12.439  27.575   2.893 -0.3368 -0.2648  0.2200
    1W        W58932  21.078  20.469   2.830 -0.0508  0.0918  0.0865
    1W        W58933  11.994   8.518   9.369  0.0244 -0.0444  0.0874
    1W        W58934  18.730   6.075   7.361  0.0209  0.0817 -0.2909
    1W        W58935  26.146   9.411   7.953  0.0017  0.1087  0.3694
    1W        W58936   4.184   0.712   1.528 -0.0025  0.0562 -0.1254
    1W        W58937  11.364  15.289   8.116 -0.0255 -0.1352  0.1260
    1W        W58938  22.453   3.107   1.144 -0.0643  0.1426  0.1391
    1W        W58939  15.071  11.213   0.255  0.1285  0.0251  0.0532
    1W        W58940  12.151  23.205   0.030 -0.1672 -0.4167 -0.0936
    1W        W58941   0.865  12.144   0.339  0.2399 -0.1636 -0.0299
    1W        W58942   6.778  17.787   5.943 -0.2227 -0.2912 -0.0007
    1W        W58943  11.260   5.979   0.053  0.0470 -0.3082 -0.1673
    1W        W58944   3.685  12.939   8.929 -0.1043 -0.1397 -0.2363
    1W        W58945  24.103  14.471   6.854 -0.1427  0.0936 -0.0308
    1W        W58946   4.566  20.482   0.773  0.1126  0.0563 -0.0260
    1W        W58947  26.780  10.187   8.886  0.2851 -0.1998 -0.0681
    1W        W58948   0.038  21.254   8.707  0.3472 -0.0150  0.0236
    1W        W58949   0.786  10.140   6.815 -0.0588  0.0067  0.0097
    1W        W58950   2.582  12.964   1.536 -0.0732  0.0612 -0.0542
    1W        W58951  17.926  18.640   8.222  0.0937  0.0480 -0.0663
    1W        W58952  12.518   8.539   9.304 -0.0408 -0.0500  0.1342
    1W        W58953   6.430   3.523   6.821 -0.0118  0.1378  0.0963
    1W        W58954  25.621   2.112   8.709 -0.2810 -0.3868 -0.2930
    1W        W58955   4.946   9.295   0.846  0.0573  0.1433  0.0121
    1W        W58956  11.986  11.638   9.545 -0.3560  0.4155  0.1348
    1W        W58957   3.493  12.470   8.885 -0.1883  0.0210 -0.0989
    1W        W58958  21.003   2.960   7.790 -0.2291 -0.1014  0.0903
    1W        W58959  17.154  15.571   1.437  0.1504 -0.0844  0.1394
    1W        W58960  21.140  20.789   0.719  0.1826 -0.2442 -0.2734
    1W        W58961  28.215  13.825   6.792 -0.1535  0.2087 -0.3604
    1W        W58962   0.739  11.922   8.093 -0.2454  0.1452 -0.0269
    1W        W58963   8.567   5.575   0.683  0.0061  0.2476  0.1302
    1W        W58964  12.896  16.718   1.108  0.1185  0.1327  0.1125
    1W        W58965   4.444   6.449   1.829 -0.3981 -0.0254  0.2072
    1W        W58966   3.083   3.451   8.391  0.1467  0.0834 -0.0601
    1W        W58967   5.787  26.997   2.031 -0.1032 -0.1824 -0.0364
    1W        W58968  11.599  14.059   7.512  0.0208 -0.2191  0.2084
    1W        W58969  16.577  21.074   9.408 -0.1058  0.0183 -0.5962
    1W        W58970  10.007   9.046   1.577 -0.4112  0.1468 -0.3297
    1W        W58971   4.538  15.652   7.819 -0.1111 -0.1637  0.3394
    1W        W58972   2.317  10.465   6.886  0.2238  0.2878  0.2427
    1W        W58973  28.342   3.750   7.291 -0.0173  0.3146 -0.0538
    1W        W58974  13.764  20.294   8.352 -0.1291  0.0553  0.0037
    1W        W58975   2.552  22.988   1.996 -0.1315 -0.2379  0.1741
    1W        W58976   6.611  19.297   1.324 -0.1384 -0.0956 -0.2441
    1W        W58977   5.698   8.577   6.893 -0.0345  0.1454 -0.0616
    1W        W58978  16.834  14.690   8.272  0.0447 -0.2428  0.1170
    1W        W58979  23.349   6.999   1.503  0.0906  0.2432  0.1793
    1W        W58980  25.432  20.933   0.579 -0.1131 -0.1947 -0.0597
    1W        W58981  22.560  10.370   8.434  0.0187  0.1270 -0.3684
    1W        W58982   2.491  12.499   1.250  0.0372  0.1861  0.1617
    1W        W58983  10.268   0.955   3.174  0.2010  0.1055 -0.2784
    1W        W58984  22.431  25.884   7.608 -0.3069 -0.0320  0.1952
    1W        W58985  15.496   6.030   0.347 -0.0686 -0.2531 -0.4628
    1W        W58986   7.517   4.830   1.040  0.2158 -0.2164 -0.0583
    1W        W58987  13.397  19.395   1.894  0.1909  0.0243 -0.0995
    1W        W58988  24.618   2.112   1.694  0.0046  0.1307 -0.0886
    1W        W58989   9.500  24.451   6.431  0.0040  0.1828 -0.3258
    1W        W58990  10.978  10.065   7.079 -0.0399  0.1552  0.1309
    1W        W58991  14.099  28.667   9.678 -0.1912  0.0823  0.0180
    1W        W58992  20.349  28.606   2.438  0.1199 -0.1830  0.0872
    1W        W58993   4.820  27.214   0.418  0.0325 -0.1261  0.3368
    1W        W58994  23.127  18.699   6.289  0.1885 -0.0435 -0.0643
    1W        W58995   4.948  12.471   6.854  0.0698 -0.0641 -0.1288
    1W        W58996  28.519  24.517   8.900  0.2642  0.3014  0.1499
    1W        W58997  28.628   1.342   0.428 -0.1513 -0.2004  0.0198
    1W        W58998  23.037   0.911   0.291  0.1006  0.0710  0.3710
    1W        W58999   4.497  20.986   0.959  0.3255  0.2077  0.3055
    1W        W59000  26.053  22.422   2.621 -0.1066 -0.1717  0.2393
    1W        W59001   7.626  27.980   8.086  0.1566 -0.1195 -0.0934
    1W        W59002  18.402  18.096   7.851 -0.0694  0.2415  0.2627
    1W        W59003   5.933  15.941   0.899 -0.0988  0.0215  0.0134
    1W        W59004  18.299  20.653   3.207  0.0808 -0.0412  0.0081
    1W        W59005  11.091  24.516   1.584 -0.1659 -0.0378  0.3421
    1W        W59006   8.849  29.133   9.585  0.0253 -0.0320 -0.1745
    1W        W59007  11.072   2.249   3.050  0.1424  0.2736  0.1191
    1W        W59008  14.495   8.943   8.251 -0.0616 -0.2427 -0.0611
    1W        W59009  25.862  22.579   0.229 -0.1760  0.0403 -0.1022
    1W        W59010  21.554   1.839   9.090 -0.2612  0.1172 -0.1922
    1W        W59011  10.877  19.051   9.533 -0.1023 -0.1537 -0.3067
    1W        W59012  26.217  12.299   7.401  0.1553 -0.1067  0.1724
    1W        W59013   6.372  16.028   1.229  0.0604 -0.1127  0.3331
    1W        W59014  26.113  19.220   1.730 -0.3525 -0.0237 -0.1084
    1W        W59015  27.911  20.773   7.228  0.0191  0.1169 -0.0828
    1W        W59016   4.059  21.086   5.737  0.1838  0.1126 -0.1606
    1W        W59017  27.959  23.195   2.006 -0.0841  0.1379 -0.1908
    1W        W59018  17.143   3.070   3.438 -0.2871  0.0867  0.3684
    1W        W59019  21.207   5.308   2.816 -0.2224  0.2396 -0.2510
    1W        W59020   2.865  28.131   2.413 -0.2125 -0.2492 -0.0549
    1W        W59021   2.878  20.146   8.971  0.2800  0.0998  0.0203
    1W        W59022  27.735  24.177   8.952  0.1581  0.1064 -0.1237
    1W        W59023  26.427   8.604   8.482 -0.0216 -0.1614 -0.0705
    1W        W59024  17.069   2.805   1.911 -0.0544 -0.0143 -0.4077
    1W        W59025   3.620   8.409   1.486  0.1206  0.0811 -0.0978
    1W        W59026  26.598  13.508   8.120  0.0205 -0.3142  0.1650
    1W        W59027   6.443   2.417   2.350 -0.2279 -0.2586  0.2875
    1W        W59028   4.896  20.309   7.481  0.2127  0.2083  0.0213
    1W        W59029  12.428  18.172   0.272 -0.0555 -0.2354  0.0800
    1W        W59030   7.860   8.092   3.133 -0.0064  0.2510 -0.1519
    1W        W59031  23.945   5.267   0.052 -0.1286 -0.0186  0.1805
    1W        W59032  13.789  14.378   8.957  0.1385 -0.2206  0.1641
    1W        W59033  23.544  15.430   1.780  0.1275 -0.1588  0.2091
    1W        W59034   6.154  24.291   9.325  0.0788  0.0259 -0.1883
    1W        W59035   4.586   9.937   2.584 -0.4714 -0.2245  0.2933
    1W        W59036  20.272  20.411   3.359  0.3849  0.0796 -0.0923
    1W        W59037  21.948  20.934   9.305  0.0685 -0.1452  0.2367
    1W        W59038  19.896   8.407   3.116  0.1471  0.0253 -0.1706
    1W        W59039  19.627  20.318   3.615  0.0068  0.0713  0.2420
    1W        W59040  12.097   4.440   9.413 -0.0349 -0.2882  0.2986
    1W        W59041  26.086  28.344   1.416 -0.2347 -0.2833  0.0019
    1W        W59042  14.228  24.213   2.283  0.0013  0.0342  0.0206
    1W        W59043   2.889   8.180   7.337 -0.0413 -0.2957 -0.1938
    1W        W59044   0.481  12.320   7.047 -0.0541  0.1238  0.3437
    1W        W59045  10.405  19.354   7.044  0.1329 -0.0803 -0.2159
    1W        W59046  17.498   0.042   3.553 -0.1413 -0.2564 -0.3230
    1W        W59047  19.632   8.441   9.400 -0.0251 -0.3239 -0.3922
    1W        W59048  15.750  26.897   3.643 -0.2000 -0.0829 -0.3024
    1W        W59049  27.961  16.231   1.297 -0.2063  0.0872  0.2274
    1W        W59050  29.332  18.250   8.188  0.0907 -0.1419  0.3071
    1W        W59051  17.348  14.329   0.695 -0.0591 -0.0460  0.1491
    1W        W59052  28.116  15.744   9.113  0.1376  0.1127  0.4234
    1W        W59053  13.691   0.600   8.015  0.4991  0.0112  0.2881
    1W        W59054   4.063   8.383   7.766  0.0736  0.1972  0.0647
    1W        W59055   7.468  15.278   1.035 -0.0723 -0.0637  0.0501
    1W        W59056  25.585  21.360   2.335 -0.0428  0.1081 -0.0084
    1W        W59057  26.297   8.216   8.813 -0.1218 -0.1114  0.0076
    1W        W59058   3.924  23.850   6.241  0.2820  0.3478  0.1841
    1W        W59059   7.515   4.603   7.205  0.0986  0.0874  0.1183
    1W        W59060  11.777  16.972   1.588  0.1083 -0.0837 -0.1949
    1W        W59061  25.604  15.669   7.041  0.0277 -0.0913 -0.2129
    1W        W59062  16.128  16.845   2.143  0.0953  0.0580  0.0636
    1W        W59063   2.192   0.038   9.487 -0.2251  0.0222  0.4194
    1W        W59064   0.025  21.701   0.274 -0.1672  0.2233  0.0311
    1W        W59065  23.613  17.799   1.092  0.1154  0.0445 -0.2619
    1W        W59066  14.781  23.107   0.772 -0.0678  0.1652 -0.2672
    1W        W59067  14.081   2.152   3.224 -0.2871 -0.0340  0.0204
    1W        W59068  21.208  19.029   7.168 -0.1031 -0.0612 -0.1836
    1W        W59069  10.612  23.126   7.323  0.0056  0.1532 -0.0089
    1W        W59070   9.085   1.136   8.969 -0.1479 -0.0017  0.1371
    1W        W59071  21.221   7.570   1.632 -0.0519 -0.2764  0.1520
    1W        W59072  16.963   2.140   8.181 -0.1111  0.4291  0.3596
    1W        W59073   2.604   5.844   6.450 -0.1048  0.1593 -0.2020
    1W        W59074   3.758   6.172   2.149  0.0905  0.1645 -0.0144
    1W        W59075   6.506  11.786   8.927  0.3470 -0.0488 -0.1463
    1W        W59076  14.142  13.119   9.005 -0.3068 -0.0535  0.0848
    1W        W59077  24.783   9.101   7.119 -0.0727  0.0418 -0.0067
    1W        W59078   4.022  16.595   7.058  0.1464  0.1678  0.2043
    1W        W59079  29.047   1.508   7.266  0.1973 -0.3448 -0.0789
    1W        W59080  27.251  18.373   6.330  0.3674 -0.2562  0.1374
    1W        W59081   4.477  24.184   9.226  0.1445  0.1829  0.4015
    1W        W59082  21.558  12.477   9.102 -0.2725 -0.0737  0.1527
    1W        W59083   1.806  18.728   7.727 -0.2081  0.0939 -0.1426
    1W        W59084  16.419  10.738   0.468 -0.0804 -0.0172 -0.0058
    1W        W59085   5.455   0.485   0.780  0.0593 -0.2473 -0.2125
    1W        W59086  14.235  18.290   1.767 -0.0324 -0.0604  0.3339
    1W        W59087  22.722  13.098   7.070 -0.0903 -0.0950 -0.2520
    1W        W59088  16.415  13.516   0.353 -0.2741  0.1276 -0.1191
    1W        W59089  25.115  13.585   8.728 -0.0262 -0.0639  0.1794
    1W        W59090  22.278  22.675   2.213 -0.0272  0.0847 -0.3217
    1W        W59091  20.231   4.269   3.179 -0.0905 -0.3831  0.0066
    1W        W59092  10.049  25.366   7.705  0.1163  0.1612  0.1962
    1W        W59093  10.122  29.255   4.230 -0.1279  0.1294  0.1619
    1W        W59094  13.416   9.091   9.573 -0.1732 -0.0677  0.0094
    1W        W59095  17.161  24.649   0.115 -0.2066 -0.1058  0.0102
    1W        W59096  23.299  11.859   6.806 -0.0622 -0.0116  0.2321
    1W        W59097  16.784  12.959   1.520 -0.2309 -0.0365  0.1089
    1W        W59098   3.942  22.684   2.095  0.0576 -0.0735 -0.1274
    1W        W59099   4.193  11.579   8.609 -0.1085 -0.1717 -0.5562
    1W        W59100  17.217  20.436   1.452  0.1036  0.5246  0.1050
    1W        W59101  10.417   0.996   9.127  0.2850 -0.1033 -0.2150
    1W        W59102  16.609   1.425   8.796 -0.1356  0.1945  0.0766
    1W        W59103   1.787   3.889   0.929  0.1545  0.0380 -0.0729
    1W        W59104   9.815   9.322   8.629  0.0986 -0.2112 -0.0320
    1W        W59105  19.047  27.403   2.370 -0.3355  0.1031 -0.3092
    1W        W59106  17.792   8.491   9.314  0.0930  0.3210 -0.1454
    1W        W59107   7.306  10.084   9.163  0.0047 -0.1044 -0.0379
    1W        W59108   0.402  26.391   7.057  0.4769  0.0935  0.1307
    1W        W59109  25.492  24.658   8.742 -0.0503  0.0349 -0.2468
    1W        W59110   9.037   7.167   8.676  0.0405  0.1486  0.1229
    1W        W59111  26.266  21.042   0.038  0.0600 -0.1385 -0.2775
    1W        W59112  23.028  26.967   7.376  0.0168  0.1017  0.2354
    1W        W59113  16.444   8.444   1.947  0.0212  0.0941 -0.1259
    1W        W59114   2.699   1.757   1.155  0.4090  0.2372 -0.2756
    1W        W59115  23.938   6.859   7.695  0.0518 -0.0344  0.3768
    1W        W59116   7.832  24.111   2.080  0.1434  0.1672  0.2707
    1W        W59117   2.954  27.425   8.464  0.5321 -0.3611  0.0151
    1W        W59118  12.153  14.957   8.419  0.1804 -0.1726 -0.0285
    1W        W59119   4.456   9.625   9.622  0.0171  0.0158 -0.0499
    1W        W59120  26.225   3.361   1.897 -0.1790 -0.3284  0.0905
    1W        W59121   8.733   5.208   0.984  0.1573 -0.1208  0.0464
    1W        W59122   1.372   2.269   7.054  0.1766 -0.1322 -0.2204
    1W        W59123  10.075   6.565   8.271 -0.0876  0.1276  0.0369
    1W        W59124  17.321  28.726   6.858  0.0414  0.0013 -0.0309
    1W        W59125  24.640  22.863   9.246 -0.0109 -0.0278 -0.0548
    1W        W59126  25.190  25.321   0.168  0.3237  0.2043 -0.1933
    1W        W59127  28.995  28.046   8.570  0.1753  0.0669 -0.0040
    1W        W59128  11.820  26.326   2.277  0.1778  0.4602 -0.0751
    1W        W59129   2.248  27.732   3.068 -0.0332  0.0686 -0.0266
    1W        W59130  11.735  23.159   2.492 -0.0896  0.1144  0.1098
    1W        W59131  14.500  21.270   2.165  0.0265  0.0891  0.0779
    1W        W59132   4.925   0.192   7.245  0.2369  0.1373 -0.1115
    1W        W59133  25.390   8.252   0.578 -0.0901 -0.2342  0.0955
    1W        W59134   3.723  24.035   1.921 -0.2272  0.1153 -0.0752
    1W        W59135  19.319   3.847   1.487 -0.0474 -0.0030  0.2782
    1W        W59136   3.859  14.921   0.244 -0.0844  0.1477 -0.1691
    1W        W59137  28.019  16.605   8.469  0.1736 -0.0576 -0.1990
    1W        W59138  19.157  20.587   1.189 -0.1675 -0.1754  0.0326
    1W        W59139  23.351  21.779   9.594 -0.0062 -0.0873 -0.0289
    1W        W59140   3.274  17.506   6.537  0.3580  0.1223  0.1406
    1W        W59141   4.263  22.850   8.351  0.1785 -0.1010 -0.1129
    1W        W59142  23.997  27.846   9.034  0.2166  0.4002  0.0133
    1W        W59143  13.734  18.133   8.149  0.3929  0.1729  0.3669
    1W        W59144  24.120  25.937   3.232  0.1502  0.1179  0.0024
    1W        W59145  12.841  28.803   9.005 -0.0616 -0.3215 -0.3383
    1W        W59146  22.799  23.177   8.844  0.0937 -0.0840 -0.0435
    1W        W59147  19.836   7.013   2.509 -0.0706 -0.1134 -0.1428
    1W        W59148   1.741   0.141   1.875  0.2398  0.0463  0.2359
    1W        W59149  10.056   1.229   2.796  0.1325 -0.0397  0.0863
    1W        W59150  15.295  14.944   8.909 -0.2307 -0.2353  0.1499
    1W        W59151  21.014  10.354   7.495  0.1976  0.1983  0.0240
    1W        W59152  17.148   1.645   6.582 -0.0907  0.5374  0.1686
    1W        W59153  14.897   2.344   8.540  0.0143 -0.1239 -0.1851
    1W        W59154   8.863  11.312   8.771  0.1559 -0.3954 -0.1517
    1W        W59155  12.588  14.568   1.082  0.1380 -0.1394  0.0302
    1W        W59156  25.388   9.909   7.661  0.0897 -0.0064 -0.3471
    1W        W59157   1.247  24.171   9.534  0.1990 -0.1912 -0.3685
    1W        W59158   5.743  16.106   6.955  0.3643 -0.1245 -0.2378
    1W        W59159  26.382   9.692   1.182 -0.1887  0.1066  0.1197
    1W        W59160   3.275  10.383   0.850 -0.0992 -0.0751  0.2053
    1W        W59161  17.900   3.180   3.459 -0.0554 -0.1521 -0.2762
    1W        W59162   5.476  17.514   0.666  0.1583  0.1309  0.1641
    1W        W59163   5.060  13.496   0.443  0.2388  0.0796  0.2871
    1W        W59164  22.451  13.073   8.873 -0.1639 -0.2565 -0.1600
    1W        W59165  17.235  24.210   8.560 -0.0137 -0.1325 -0.0206
    1W        W59166   6.625  26.624   9.381 -0.1546 -0.0387  0.2640
    1W        W59167  13.642  14.507   1.128 -0.2066  0.1696  0.1540
    1W        W59168   8.787  10.790   0.952 -0.2664 -0.2979  0.0377
    1W        W59169  21.379  10.205   0.708 -0.0929  0.3034  0.1009
    1W        W59170  22.072   5.219   9.383 -0.2938  0.3258  0.1134
    1W        W59171  26.221   1.908   0.498  0.1606 -0.2450  0.0437
    1W        W59172   8.003  15.868   2.325  0.0713 -0.0016 -0.0992
    1W        W59173   2.472   4.953   8.559 -0.0100  0.0090 -0.0643
    1W        W59174   3.437  23.719   9.358  0.2090 -0.0399 -0.1452
    1W        W59175  19.881  19.013   0.705 -0.2255  0.0814 -0.0873
    1W        W59176   7.110   3.049   3.046  0.2569  0.1173  0.0352
    1W        W59177  12.783  22.732   8.041 -0.0013 -0.1149  0.0260
    1W        W59178   0.723  12.726   1.448 -0.0393  0.2349 -0.1588
    1W        W59179   5.250  16.927   6.156 -0.2175  0.1270  0.0733
    1W        W59180  23.630   5.670   7.707  0.0049  0.0546 -0.1581
    1W        W59181   6.269  20.500   6.983 -0.2342  0.1042 -0.1694
    1W        W59182  28.816  15.895   9.519  0.0252 -0.0419  0.0539
    1W        W59183  10.711   0.893   3.415 -0.0646 -0.0008 -0.3112
    1W        W59184  26.673  21.104   2.234  0.1485  0.0519  0.4091
    1W        W59185   4.764   0.203   9.244  0.0854  0.1592  0.4070
    1W        W59186  23.028   4.352   6.444  0.0202 -0.1168 -0.0197
    1W        W59187  20.179  23.745   1.213  0.0466  0.0412  0.0100
    1W        W59188  26.034   2.728   2.449 -0.1170 -0.0338 -0.0721
    1W        W59189   5.300  23.092   8.925 -0.3540 -0.1488  0.1132
    1W        W59190  14.025  12.518   7.845 -0.0513  0.1877 -0.1085
    1W        W59191  13.764  21.755   0.946  0.1322 -0.0155 -0.1452
    1W        W59192  16.625  21.416   7.720 -0.2701  0.0426 -0.1084
    1W        W59193   8.937  28.193   2.984  0.1506  0.0150  0.0523
    1W        W59194   1.091   2.799   8.848  0.0284  0.1576 -0.2442
    1W        W59195  27.413   0.616   0.519  0.1435 -0.1265  0.2437
    1W        W59196   1.957   0.802   8.721 -0.0295  0.3043 -0.3412
    1W        W59197  14.341  21.678   2.377  0.2954  0.1668  0.2863
    1W        W59198   3.403   8.533   7.193  0.2756 -0.0605  0.1119
    1W        W59199  13.012  13.466   8.824 -0.0558  0.0478 -0.0598
    1W        W59200   6.121  26.842   9.653  0.1262 -0.1488  0.1463
    1W        W59201  16.385  12.183   1.626  0.0795 -0.1631 -0.0264
    1W        W59202  22.516  22.438   1.346  0.0613  0.0730  0.1838
    1W        W59203  10.937  20.118   9.066 -0.0213 -0.2268 -0.0563
    1W        W59204   9.936  20.174   6.135  0.0678  0.2450 -0.1723
    1W        W59205  11.805  19.767   8.123  0.0159 -0.0316 -0.0527
    1W        W59206   3.567  24.269   6.481 -0.1091  0.2381 -0.0869
    1W        W59207  19.584  21.009   1.606 -0.0135  0.0478  0.0353
    1W        W59208   5.181  26.523   2.006  0.0192  0.4327  0.3473
    1W        W59209  19.421  13.547   0.557 -0.0719  0.0079 -0.0030
    1W        W59210   0.038  24.854   6.745  0.0075 -0.2875 -0.3040
    1W        W59211   1.918  27.823   2.500  0.0746  0.2047 -0.0369
    1W        W59212  21.300   2.462   3.191 -0.1162  0.1876 -0.1742
    1W        W59213   3.704  22.293   8.807  0.2281  0.0108 -0.0446
    1W        W59214   2.981  23.312   2.234 -0.0011 -0.1841  0.4469
    1W        W59215  26.114   9.663   0.284  0.1705  0.1629 -0.4331
    1W        W59216  14.721   7.321   2.996 -0.0667 -0.0753  0.1182
    1W        W59217   5.533   2.392   0.760  0.0862  0.3379  0.1483
    1W        W59218  27.161  21.069   7.815  0.1080 -0.1330 -0.2639
    1W        W59219  20.132  19.484   8.108  0.1586  0.1815 -0.0611
    1W        W59220  28.141   5.401   6.875 -0.1677 -0.3583 -0.0154
    1W        W59221  20.817  22.106   6.758  0.1605  0.2457  0.1189
    1W        W59222  13.616   3.599   1.702  0.0175 -0.1318  0.4700
    1W        W59223   5.820   2.939   2.626  0.1241 -0.0766  0.0991
    1W        W59224   3.306  25.139   8.615 -0.0046  0.2415 -0.0200
    1W        W59225  18.016   7.332   8.592 -0.0760 -0.4969  0.1390
    1W        W59226  12.403  11.945   0.616  0.3390 -0.0032 -0.1158
    1W        W59227   2.157   9.874   8.668 -0.0546 -0.3294 -0.0246
    1W        W59228  15.256  16.597   1.806 -0.0588 -0.1081 -0.1604
    1W        W59229  24.906   8.888   1.945  0.1561 -0.2512 -0.0897
    1W        W59230  29.092   7.607   8.136  0.0860 -0.0115  0.0896
    1W        W59231  26.656   4.649   0.198  0.1671 -0.1459 -0.1712
    1W        W59232   5.585   9.693   6.296  0.0162  0.0235 -0.0662
    1W        W59233  28.430  14.230   7.056  0.3140 -0.2911 -0.1067
    1W        W59234   5.187  25.442   9.510  0.0403  0.0269  0.1305
    1W        W59235   6.257  24.404   2.564  0.1061 -0.1878  0.4415
    1W        W59236   2.518  25.631   6.059 -0.5485  0.1015 -0.1386
    1W        W59237   4.312  25.213   2.677  0.2925  0.0725 -0.1257
    1W        W59238  17.636   7.356   2.103 -0.1178 -0.0989 -0.1628
    1W        W59239  17.990  20.835   2.342 -0.4230 -0.1055 -0.0854
    1W        W59240   4.021  14.601   1.118 -0.1767  0.0129 -0.0064
    1W        W59241  27.827   3.959   0.134  0.1502 -0.2345  0.1808
    1W        W59242  10.042  16.214   2.298  0.0738 -0.2108 -0.1285
    1W        W59243   8.333   7.029   8.319 -0.0014 -0.0484  0.0003
    1W        W59244  21.049  12.105   0.931  0.0856  0.0860 -0.0345
    1W        W59245   3.763  20.317   7.775 -0.1777 -0.0755  0.1834
    1W        W59246   4.108   7.646   9.205  0.1429  0.0258  0.2450
    1W        W59247  12.178  25.030   3.658  0.4050 -0.1372  0.0831
    1W        W59248   4.471   0.196   3.460  0.2062 -0.0899 -0.4457
    1W        W59249   5.103  22.433   2.309 -0.1507  0.1291  0.0286
    1W        W59250  11.936  16.113   2.741 -0.2633 -0.0599  0.3061
    1W        W59251   0.683  19.956   8.323  0.0894 -0.0385  0.2135
    1W        W59252  25.697   6.013   7.556  0.2925 -0.0087 -0.0767
    1W        W59253  17.249  24.815   1.537  0.1722 -0.5594 -0.2252
    1W        W59254  23.904  23.572   0.290  0.3017 -0.0414 -0.0620
    1W        W59255  26.633  23.766   1.150 -0.2773  0.0473 -0.1696
    1W        W59256  13.326  24.421   7.680  0.1309 -0.3106  0.2428
    1W        W59257   9.860   3.537   2.696 -0.1470 -0.0040  0.1460
    1W        W59258  20.631   9.253   1.041  0.1887 -0.1684 -0.2009
    1W        W59259  25.677  28.194   0.435 -0.0773  0.0433  0.0671
    1W        W59260   5.891   7.719   9.078  0.0927  0.1358 -0.0261
    1W        W59261  15.244   5.890   3.112  0.3189  0.0230 -0.1740
    1W        W59262  17.731  17.646   1.610 -0.1942 -0.0221 -0.0098
    1W        W59263  19.389   8.482   2.748 -0.0208 -0.0098 -0.1060
    1W        W59264  17.846   1.158   2.343 -0.0146  0.1357  0.1344
    1W        W59265  27.199  18.937   6.466 -0.0868  0.3153  0.0009
    1W        W59266  14.412   7.774   3.174 -0.1845  0.1636 -0.1680
    1W        W59267  28.790  26.184   2.362 -0.0061  0.1591  0.1931
    1W        W59268  23.790  24.516   2.793  0.0159 -0.1105 -0.0815
    1W        W59269   9.889  11.620   0.341  0.0723 -0.1238 -0.0182
    1W        W59270  26.595   6.065   6.814 -0.0805  0.0564 -0.1275
    1W        W59271   4.463  18.247   9.034 -0.0541 -0.3266 -0.1267
    1W        W59272   1.654   7.424   7.162 -0.2741 -0.0554  0.3710
    1W        W59273   5.055   5.326   7.538  0.1574 -0.2303 -0.1274
    1W        W59274  21.638  15.391   8.164 -0.1215  0.0007  0.0948
    1W        W59275  27.985   4.474   8.999 -0.2555 -0.0021  0.3146
    1W        W59276   7.395  19.172   8.194 -0.0965  0.0734 -0.0789
    1W        W59277  28.774  22.761   7.472  0.1876  0.3778  0.0351
    1W        W59278  11.114   0.735   3.653  0.3104  0.2236  0.0306
    1W        W59279  17.389   0.064   3.113  0.2021 -0.4036  0.0900
    1W        W59280  14.423  25.890   0.833 -0.3311  0.1033 -0.0932
    1W        W59281   0.816  18.442   6.684  0.1399  0.1399  0.2518
    1W        W59282  17.394   6.595   8.474  0.0265  0.4260 -0.0908
    1W        W59283  23.575  22.873   1.983 -0.0414 -0.1973 -0.1848
    1W        W59284   1.065   0.700   8.557  0.0400 -0.1124  0.1466
    1W        W59285   8.409  19.028   7.984  0.1009  0.0261 -0.1640
    1W        W59286  12.499  12.574   7.490 -0.1318  0.1063 -0.0117
    1W        W59287  12.904  28.629   7.951 -0.4741 -0.0616  0.3995
    1W        W59288   5.328  24.407   8.547  0.0813 -0.2003 -0.1145
    1W        W59289  12.696  11.238   7.413  0.0122 -0.0216 -0.2405
    1W        W59290  22.133  19.152   8.942 -0.2416  0.0548  0.0937
    1W        W59291   4.205   9.396   0.250  0.1378  0.3359 -0.2318
    1W        W59292  27.143  15.703   7.875  0.1836 -0.1079  0.1260
    1W        W59293  23.241  28.226   0.357  0.2643  0.1949  0.4145
    1W        W59294  13.382   1.743   2.206 -0.1766 -0.1474 -0.0120
    1W        W59295  12.268  10.745   2.219 -0.1840 -0.1828  0.1548
    1W        W59296   9.346  25.451   0.056  0.1952 -0.1080 -0.0085
    1W        W59297   7.221  23.263   7.023  0.0648 -0.1565 -0.0769
    1W        W59298  17.155  23.585   0.021  0.0955 -0.0375 -0.1497
    1W        W59299  12.157  10.192   1.754  0.1602  0.1989 -0.1835
    1W        W59300  16.732   4.763   9.523 -0.3056 -0.5721  0.1204
    1W        W59301  20.463   1.693   2.426  0.1724  0.3985  0.2648
    1W        W59302  15.456   8.487   7.964  0.0788  0.1999  0.1348
    1W        W59303   2.039   8.017   7.736 -0.0476 -0.2578 -0.1261
    1W        W59304  10.807  17.530   7.613  0.1016 -0.3036 -0.1785
    1W        W59305   8.019   4.514   0.977  0.2964  0.1677  0.0820
    1W        W59306  26.371  26.119   1.954 -0.2016  0.4323  0.0210
    1W        W59307  17.130  24.144   8.076  0.1926  0.1523 -0.1719
    1W        W59308  26.344   6.059   5.766  0.0496  0.1411 -0.1944
    1W        W59309   4.600   7.912   7.044  0.0432  0.2446 -0.0666
    1W        W59310  29.159   4.762   9.659 -0.1420 -0.0843 -0.0587
    1W        W59311  11.514  21.246   1.518 -0.1880  0.1430 -0.2111
    1W        W59312   2.944  28.759   9.305  0.1352 -0.3537  0.0628
    1W        W59313  10.714  11.150   2.410 -0.2230 -0.1282 -0.0635
    1W        W59314   4.254  17.145   5.880 -0.0689  0.0104 -0.1059
    1W        W59315   9.411   3.894   0.481 -0.2021 -0.2076 -0.4231
    1W        W59316  24.544   0.956   0.578 -0.2602  0.0678  0.4476
    1W        W59317  25.821  12.928   6.900 -0.1429 -0.1660  0.0309
    1W        W59318  12.037  13.799   0.609  0.1202 -0.3080 -0.1638
    1W        W59319  24.422  29.203   7.368 -0.1191 -0.0485  0.2260
    1W        W59320  12.995  12.206   2.973  0.1369  0.1554  0.2197
    1W        W59321  10.990  27.040   8.602 -0.0016  0.3190  0.0764
    1W        W59322  17.208   0.078   1.210  0.0030 -0.1866  0.3438
    1W        W59323  19.980  12.072   1.556 -0.1638 -0.1201  0.1211
    1W        W59324  20.397  17.920   1.204 -0.0828 -0.1808 -0.1693
    1W        W59325  22.979   7.245   8.531 -0.4112 -0.0368  0.1140
    1W        W59326  27.203  19.546   6.865 -0.0207 -0.0520 -0.0809
    1W        W59327  14.377   0.008   1.826  0.0066 -0.0945 -0.2871
    1W        W59328  27.485   5.636   2.591  0.1056  0.4366 -0.0489
    1W        W59329  28.471  12.769   6.421  0.1036 -0.3888 -0.0834
    1W        W59330  10.291  22.141   7.533 -0.4601  0.1224  0.0772
    1W        W59331  26.510   5.830   8.842 -0.3232 -0.0806  0.3075
    1W        W59332   8.715   2.531   1.759 -0.0564  0.2389 -0.0512
    1W        W59333   7.173   8.211   1.471 -0.1670 -0.0347  0.1422
    1W        W59334  19.386   0.677   7.093  0.3521 -0.3264 -0.5275
    1W        W59335   1.328  14.266   8.370  0.0753 -0.1197  0.0685
    1W        W59336  23.958  23.534   9.457  0.0825  0.2760  0.1029
    1W        W59337  21.908  26.657   2.931  0.0269  0.1099 -0.0210
    1W        W59338  24.059  25.430   7.545 -0.0885 -0.1787  0.1423
    1W        W59339   7.804  17.181   3.048 -0.1556  0.0331  0.0130
    1W        W59340   5.830   9.263   2.650  0.1092 -0.1908  0.0580
    1W        W59341  19.682  17.839   9.011 -0.2287 -0.0467  0.1454
    1W        W59342  12.206  19.895   8.595 -0.0209 -0.0237  0.0092
    1W        W59343  18.803  23.557   1.736  0.5138  0.2749  0.4505
    1W        W59344   1.051   8.795   7.693  0.2768 -0.2842 -0.0245
    1W        W59345   6.444  13.960   7.546  0.0892  0.2434 -0.1430
    1W        W59346  24.165  18.606   6.955 -0.2322 -0.0352 -0.0749
    1W        W59347  10.855   9.693   0.433  0.0540 -0.2539  0.2328
    1W        W59348   4.031  13.231   0.092  0.1955 -0.2782  0.4680
    1W        W59349   3.622  26.594   7.119  0.0206  0.0782  0.1598
    1W        W59350  27.009  16.265   7.861 -0.1530  0.1390 -0.1087
    1W        W59351  15.397   3.169   1.135  0.0950 -0.0327  0.0132
    1W        W59352  13.722  18.744   0.313 -0.2238 -0.0652  0.2424
    1W        W59353  14.298  16.007   8.066 -0.1499  0.0241  0.1529
    1W        W59354  26.957  18.461   0.978  0.0917  0.2572  0.0923
    1W        W59355   3.294  21.959   1.336 -0.4131  0.2760  0.2305
    1W        W59356   2.975  24.375   0.447 -0.0875  0.2988 -0.0349
    1W        W59357  12.694  25.649   1.175  0.1568 -0.0167  0.2729
    1W        W59358  27.633  28.088   2.275 -0.0543  0.1662 -0.1097
    1W        W59359   2.357  20.612   1.135 -0.0051 -0.1352 -0.0059
    1W        W59360  15.726  21.235   6.649 -0.2235  0.0166 -0.2332
    1W        W59361  14.934   4.303   8.566 -0.2407 -0.3204 -0.0914
    1W        W59362  27.357  21.706   9.296  0.0903 -0.1615  0.1219
    1W        W59363  11.280   2.686   8.331  0.0435 -0.1931 -0.1206
    1W        W59364   7.140  28.195   8.580  0.1202 -0.0762 -0.0223
    1W        W59365   7.264  22.643   0.309 -0.2210 -0.1311 -0.3121
    1W        W59366   1.420  16.922   1.307  0.2819 -0.0601  0.4001
    1W        W59367   7.786  10.109   9.350  0.1133 -0.0525  0.0426
    1W        W59368   5.919  24.034   0.435 -0.2486  0.1697  0.0759
    1W        W59369   9.999  23.038   1.519 -0.1333 -0.0153 -0.2523
    1W        W59370   8.898   4.740   0.670  0.0935  0.1083 -0.1692
    1W        W59371  29.187   9.985   7.868 -0.3891  0.2420  0.1782
    1W        W59372   4.396   5.136   6.802  0.1012  0.4170  0.3004
    1W        W59373   8.159   6.734   0.856 -0.0217  0.3345 -0.0606
    1W        W59374  23.171   1.947   8.292  0.0096 -0.2796  0.1379
    1W        W59375  24.079  12.306   9.188 -0.2477 -0.5343 -0.0773
    1W        W59376  21.737  11.446   0.983  0.2089 -0.3210  0.0302
    1W        W59377   6.773   0.433   0.185  0.1208  0.0426  0.2161
    1W        W59378  22.028   6.506   7.945  0.0264 -0.2308  0.1268
    1W        W59379  10.752  25.303   9.381  0.3525 -0.1155 -0.1174
    1W        W59380  27.009   4.960   0.420  0.0761  0.2634  0.0656
    1W        W59381   9.374  16.845   1.784 -0.1824 -0.0098 -0.0599
    1W        W59382  14.191  18.839   2.701  0.0108  0.1575  0.0047
    1W        W59383   8.084  14.836   8.386  0.1373  0.0958  0.1892
    1W        W59384  14.929   6.511   9.455  0.0086 -0.0849 -0.1865
    1W        W59385  28.371   5.248   1.265 -0.1855 -0.1849  0.2102
    1W        W59386   5.637  28.509   8.933 -0.2550  0.0209 -0.1394
    1W        W59387  12.925  13.942   0.093 -0.1899 -0.0481  0.1284
    1W        W59388   4.357  16.618   2.049 -0.2608  0.3552 -0.0571
    1W        W59389  24.824  23.844   1.282 -0.0049  0.1418  0.1606
    1W        W59390   0.591  28.454   1.622  0.1441 -0.1796  0.2246
    1W        W59391  12.745   6.843   2.856 -0.2649  0.1694  0.2097
    1W        W59392   5.453  23.444   1.987 -0.0002 -0.0467 -0.0184
    1W        W59393  25.640  25.489   1.489  0.0181 -0.0787 -0.2342
    1W        W59394  12.284  11.128   1.239 -0.1689  0.1839  0.1421
    1W        W59395  19.469   8.951   0.630  0.4172  0.0957  0.0796
    1W        W59396  18.409  10.968   1.901 -0.0475  0.1653  0.0672
    1W        W59397   1.126  20.509   1.624  0.2668 -0.2296  0.3244
    1W        W59398  17.463   8.150   9.132 -0.0127 -0.1955  0.2216
    1W        W59399   6.845  15.870   1.196  0.1140 -0.3222 -0.0954
    1W        W59400  22.456   6.483   8.278  0.3369 -0.2042  0.0981
    1W        W59401   8.762   0.916   1.523  0.1341  0.1873 -0.1382
    1W        W59402  15.964   9.845   7.297 -0.5159 -0.2854 -0.0160
    1W        W59403  17.962  17.562   2.096 -0.3190  0.1497  0.1067
    1W        W59404   0.801  21.620   9.199  0.1102 -0.1639  0.1383
    1W        W59405   8.631   3.171   2.732  0.0342  0.0620 -0.0403
    1W        W59406  13.927  20.891   7.733  0.1545 -0.1449 -0.1778
    1W        W59407   5.716  28.154   0.773  0.1384  0.0309  0.1917
    1W        W59408  23.819   2.358   6.084  0.0393  0.2115 -0.0535
    1W        W59409  17.069  14.370   9.104  0.1235 -0.2091 -0.0824
    1W        W59410  10.386   5.083   1.802  0.0048 -0.0838 -0.0253
    1W        W59411  22.840   0.969   1.238  0.0752  0.1431  0.1137
    1W        W59412  12.644  14.931   9.234  0.0345 -0.0304 -0.1755
    1W        W59413   7.532   4.440   8.690 -0.2086 -0.0806 -0.2466
    1W        W59414  14.965   5.698   0.954 -0.0333 -0.1239 -0.0830
    1W        W59415   5.095  10.359   7.772 -0.0594  0.0355  0.3070
    1W        W59416  27.097  22.277   6.894 -0.1631 -0.0433 -0.0796
    1W        W59417   4.334  17.352   0.904 -0.2045  0.0037 -0.2443
    1W        W59418   9.626  14.202   8.791 -0.1010  0.1798 -0.3458
    1W        W59419  17.944   8.086   8.378 -0.0749  0.0148 -0.0090
    1W        W59420  17.081  13.807   7.343 -0.3956 -0.0831 -0.1776
    1W        W59421   6.384   0.745   0.122 -0.1050 -0.1837  0.3898
    1W        W59422  10.872   0.281   1.112 -0.1453  0.0777 -0.0566
    1W        W59423  28.133   8.678   1.270  0.2686 -0.0566 -0.0684
    1W        W59424  13.578  24.929   3.422 -0.0352 -0.2131 -0.0844
    1W        W59425   5.881  23.595   0.121  0.1325  0.1799  0.2646
    1W        W59426  10.231  16.142   9.649  0.1601 -0.1143  0.1414
    1W        W59427   1.350  23.128   6.192 -0.1067  0.1292  0.1221
    1W        W59428  24.367  20.824   1.257  0.2278 -0.0225 -0.2871
    1W        W59429   5.510   3.655   7.392  0.1207  0.1877  0.0066
    1W        W59430  19.160  24.068   8.496 -0.2734  0.0066 -0.4503
    1W        W59431  17.229   1.370   8.688 -0.2273  0.3502 -0.1593
    1W        W59432  14.016  21.348   0.692 -0.0227  0.1263  0.0209
    1W        W59433   9.719  25.520   1.424 -0.1224 -0.0550  0.1615
    1W        W59434   1.605   0.048   0.033 -0.3053 -0.1720  0.0738
    1W        W59435  14.955   4.901   8.056  0.2446  0.1591 -0.0450
    1W        W59436  17.346  21.241   0.119 -0.2037 -0.3623 -0.0753
    1W        W59437  20.717  12.733   7.589  0.1611 -0.0918  0.3320
    1W        W59438  10.835   0.395   8.176  0.1415 -0.3462 -0.0744
    1W        W59439   8.794   4.331   1.388 -0.4791  0.2265 -0.1981
    1W        W59440  16.668  15.191   0.178  0.1895 -0.2756  0.2286
    1W        W59441  27.715   4.341   6.879  0.2134  0.0999 -0.0303
    1W        W59442  25.331   6.834   8.726 -0.0875  0.0902  0.0142
    1W        W59443  13.123   7.226   0.516 -0.0441 -0.2018 -0.2358
    1W        W59444  12.810  10.635   2.200 -0.0203 -0.1129  0.0184
    1W        W59445  28.826  14.263   0.939  0.4039 -0.1474 -0.0804
    1W        W59446  11.564   7.683   3.002  0.1552  0.0430 -0.1327
    1W        W59447  28.760  24.168   0.745  0.2979  0.1665  0.1708
    1W        W59448  18.965   2.775   2.331  0.1222 -0.0600  0.0885
    1W        W59449   3.941   2.572   2.971  0.0257  0.1103 -0.2419
    1W        W59450  21.159  26.237   8.704 -0.3195 -0.3590 -0.1345
    1W        W59451  16.466  27.662   3.195  0.1479 -0.2377  0.3109
    1W        W59452  26.520   2.440   1.658  0.0974 -0.1250  0.0818
    1W        W59453   4.478   6.076   6.806 -0.1297 -0.1719  0.1769
    1W        W59454  14.693  26.348   3.491  0.1400 -0.1114 -0.2787
    1W        W59455  14.859   8.238   8.723 -0.2401  0.1565  0.3483
    1W        W59456  24.135  15.866   6.267  0.3350 -0.2626 -0.0068
    1W        W59457  11.533  13.414   8.423  0.2157  0.1340 -0.3946
    1W        W59458  12.107  11.403   1.613 -0.3815 -0.0946  0.1115
    1W        W59459  24.090  11.923   8.286  0.0213  0.1721 -0.0162
    1W        W59460  19.226   2.591   9.512 -0.1772 -0.3982  0.3271
    1W        W59461  21.086   7.778   0.134  0.1688  0.0329  0.2870
    1W        W59462  21.034   8.548   0.481 -0.1968  0.6076  0.0396
    1W        W59463   8.843  24.318   1.944  0.0581 -0.0480 -0.2724
    1W        W59464   8.089   8.465   9.360  0.2236 -0.1069  0.0317
    1W        W59465   4.280  11.544   2.960 -0.0556 -0.0968 -0.1584
    1W        W59466  14.572  13.709   8.363  0.1608 -0.1528 -0.0716
    1W        W59467  10.679   1.860   3.151  0.2788 -0.1258  0.0371
    1W        W59468  16.727   7.256   2.794 -0.1264 -0.1800  0.1216
    1W        W59469   4.637  15.484   0.051  0.3812 -0.1546  0.0790
    1W        W59470  17.301   5.160   8.866  0.3659  0.0524 -0.0864
    1W        W59471  27.662  23.875   0.053 -0.0327  0.1342 -0.1784
    1W        W59472   6.273  10.545   7.279  0.3061 -0.0207 -0.0693
    1W        W59473  18.964   0.886   9.446 -0.1790 -0.0785 -0.3541
    1W        W59474  17.929  14.557   0.150 -0.0046 -0.2254  0.0307
    1W        W59475  18.779  28.596   0.728  0.0474 -0.0967 -0.1719
    1W        W59476  28.380  14.825   6.510 -0.0342 -0.1047  0.0134
    1W        W59477  13.498  11.252   8.389  0.0862 -0.0102 -0.1890
    1W        W59478  23.186   4.232   9.228 -0.3769 -0.2524 -0.0452
    1W        W59479  13.110  26.462   1.347 -0.4823 -0.2943  0.1047
    1W        W59480  14.992  17.391   7.492  0.0628  0.1029  0.4020
    1W        W59481  11.800   9.764   9.493 -0.1142 -0.1163  0.1723
    1W        W59482  18.425  19.850   2.464 -0.0167  0.0227  0.1199
    1W        W59483  25.662  25.249   2.879 -0.3011 -0.2421  0.0502
    1W        W59484  10.717   7.603   2.367 -0.2247 -0.1250  0.1934
    1W        W59485   4.060  26.630   7.301 -0.2744 -0.0440  0.1620
    1W        W59486  25.023   7.832   9.400  0.0931  0.2415  0.4379
    1W        W59487  29.294   6.685   1.168  0.3230 -0.0901 -0.0003
    1W        W59488   7.772   4.085   7.923  0.0226  0.1778 -0.2462
    1W        W59489   5.155  12.770   2.278 -0.1172  0.0785  0.0770
    1W        W59490  20.056   1.723   7.683 -0.0631  0.1010  0.0648
    1W        W59491   6.636   1.638   8.691 -0.0801  0.0487  0.1473
    1W        W59492   2.219  11.399   7.722 -0.2118  0.0777  0.0910
    1W        W59493   6.740  12.150   9.153 -0.0824  0.0313  0.5002
    1W        W59494  20.148  27.038   0.266  0.2269 -0.2140 -0.0292
    1W        W59495  24.676   4.732   1.648  0.1087  0.3142 -0.4199
    1W        W59496  24.651  27.194   8.999 -0.1448 -0.1986  0.3152
    1W        W59497  28.011  15.490   6.715 -0.1305  0.3511 -0.1688
    1W        W59498   1.036  16.116   7.324  0.0318 -0.1942 -0.2358
    1W        W59499   9.179   8.570   0.474  0.0148  0.0921 -0.1109
    1W        W59500  25.990  27.514   1.541 -0.1364  0.2627 -0.2282
    1W        W59501  18.100   6.499   2.178  0.2281 -0.0581 -0.1128
    1W        W59502   4.703  22.871   1.310  0.1162  0.0170  0.2646
    1W        W59503   5.436  27.322   8.446 -0.3444 -0.3941  0.4776
    1W        W59504  15.630  23.890   8.794  0.1924 -0.2133 -0.0171
    1W        W59505  10.970   6.568   0.684 -0.2418 -0.1272  0.1103
    1W        W59506  23.200   6.592   1.894 -0.0105 -0.3256  0.0145
    1W        W59507  18.630  10.813   0.115 -0.1270  0.1750 -0.1712
    1W        W59508   5.274  11.990   0.031 -0.0331  0.2606  0.0432
    1W        W59509  27.409  26.756   8.963  0.0365 -0.0943  0.1140
    1W        W59510  20.268  18.561   9.127  0.0657 -0.0124 -0.0460
    1W        W59511  23.621   1.575   8.397  0.0824 -0.0255  0.1327
    1W        W59512  23.955   4.672   7.488  0.2072  0.0472 -0.1798
    1W        W59513  12.492   9.427   0.221  0.1304 -0.1889 -0.2455
    1W        W59514  24.456   9.234   0.108  0.0302  0.3400  0.0725
    1W        W59515  27.227   4.300   1.702  0.1534 -0.0515 -0.0001
    1W        W59516   6.912  25.505   2.300  0.2812  0.0430 -0.0168
    1W        W59517  21.444   0.028   0.100 -0.2128 -0.1451 -0.1142
    1W        W59518  19.427  12.316   0.240  0.3761  0.0108 -0.1767
    1W        W59519  14.057   5.188   0.024 -0.1490 -0.0457 -0.1541
    1W        W59520   8.343  24.129   8.256  0.1613 -0.2244  0.1775
    1W        W59521   7.031  10.515   9.002  0.1073  0.0461 -0.0483
    1W        W59522   1.950  26.831   8.993  0.0691 -0.0699  0.0641
    1W        W59523  28.691  26.949   8.323 -0.0490  0.2376 -0.1244
    1W        W59524   3.378  13.353   8.950 -0.0307  0.3370  0.1020
    1W        W59525  20.199   5.839   0.678  0.2358  0.0010 -0.1991
    1W        W59526  28.820   9.455   1.743  0.0194  0.2008  0.1223
    1W        W59527   2.938  18.869   2.297 -0.0794  0.1121 -0.3452
    1W        W59528  19.683  14.881   8.130  0.2335 -0.1313  0.1554
    1W        W59529   7.721  27.145   1.915  0.2465  0.0339 -0.0334
    1W        W59530  27.188  18.554   6.806  0.0663  0.2769  0.1306
    1W        W59531  21.474   3.502   8.549  0.1682 -0.3752 -0.0040
    1W        W59532  25.346  23.690   8.012  0.3793 -0.2128 -0.1049
    1W        W59533  25.634  26.733   2.088  0.0524 -0.2935 -0.1492
    1W        W59534  15.140  18.492   0.810 -0.0357  0.1552 -0.0931
    1W        W59535   7.916  10.209   1.344 -0.0974 -0.0309 -0.3138
    1W        W59536  19.489  19.059   7.619 -0.2829  0.1392 -0.0903
    1W        W59537  21.211   3.487   2.439  0.3468  0.2093  0.1205
    1W        W59538  23.131  24.355   1.407 -0.0007  0.1993  0.3170
    1W        W59539  16.568   0.730   8.437 -0.0651  0.0428  0.0997
    1W        W59540  26.980  24.003   8.560 -0.1877 -0.0043  0.0040
    1W        W59541  11.438  26.467   9.338  0.1339 -0.0568 -0.1199
    1W        W59542  24.131  13.575   9.349 -0.4915  0.0661  0.0356
    1W        W59543  12.527   5.439   1.357  0.1478  0.0739  0.1428
    1W        W59544  24.731  12.468   5.885 -0.1466  0.1481  0.3046
    1W        W59545  26.893  16.368   0.389 -0.2600 -0.1528  0.0800
    1W        W59546  26.545  28.460   0.475 -0.0166  0.3460 -0.0982
    1W        W59547  15.346  23.755   1.188 -0.1341  0.0314 -0.2219
    1W        W59548   1.999  15.813   8.278  0.1211 -0.2373  0.3888
    1W        W59549  22.598   7.329   1.463  0.1566 -0.0671  0.0921
    1W        W59550  10.506  15.580   1.793 -0.0707 -0.0239 -0.0032
    1W        W59551  17.462  11.169   1.855  0.2284 -0.0188  0.2505
    1W        W59552  17.525   3.546   7.604  0.1448 -0.0291  0.0411
    1W        W59553  14.658  10.836   0.908 -0.0557  0.1622 -0.1114
    1W        W59554  22.397  21.197   6.080 -0.0172 -0.2643  0.1180
    1W        W59555  27.698  22.253   7.800 -0.1917  0.0023 -0.0660
    1W        W59556  26.716  15.093   8.588 -0.1039  0.0690  0.1227
    1W        W59557  12.433  23.404   7.849 -0.0266 -0.2670 -0.1598
    1W        W59558   4.888   5.023   2.867  0.0368 -0.1475 -0.0095
    1W        W59559   9.412   9.555   1.095  0.0017  0.0866  0.0869
    1W        W59560  16.808  26.697   2.464 -0.0036  0.0234 -0.0758
    1W        W59561  23.828  21.909   6.962  0.1246  0.0036  0.3744
    1W        W59562  27.623   6.344   6.759 -0.1024 -0.2291 -0.0345
    1W        W59563  14.028  16.674   0.342  0.1077  0.0800 -0.2046
    1W        W59564   4.186  18.190   8.115  0.0071 -0.1306  0.0075
    1W        W59565  21.581  21.019   1.364 -0.0641  0.0468  0.1019
    1W        W59566  17.807  25.232   2.381 -0.0930 -0.2379  0.2046
    1W        W59567  15.754  23.435   8.561 -0.0273 -0.0923 -0.2078
    1W        W59568   4.037  28.548   0.499 -0.0711  0.0866 -0.1809
    1W        W59569  14.062  11.763   9.331  0.1789  0.0172  0.3666
    1W        W59570   8.843  14.454   9.316  0.2503  0.1087  0.0739
    1W        W59571  23.602  22.797   8.686  0.1300  0.1130  0.0332
    1W        W59572  13.502  23.903   1.619  0.0140 -0.2469  0.1565
    1W        W59573  13.332  22.375   1.376 -0.0503 -0.2183 -0.0307
    1W        W59574   1.420   0.526   3.027  0.1243  0.0781  0.1241
    1W        W59575   2.810  12.573   2.194  0.0858  0.1113 -0.0148
    1W        W59576   1.283  13.485   9.514  0.1024 -0.0771 -0.2527
    1W        W59577   2.163  10.003   0.972  0.1309 -0.0508  0.1822
    1W        W59578  28.091  26.345   0.743 -0.0413  0.0297 -0.3869
    1W        W59579   6.403  27.795   7.875 -0.1375  0.2613  0.0141
    1W        W59580  24.418  14.850   6.695  0.0678 -0.1685  0.0668
    1W        W59581  22.199  11.298   1.151  0.1515  0.3387 -0.0457
    1W        W59582  12.592  12.709   9.017 -0.0155  0.0903 -0.1397
    1W        W59583   0.271  18.886   2.206  0.2888 -0.2362  0.0452
    1W        W59584  25.230   3.177   0.632  0.5820 -0.0429 -0.1733
    1W        W59585   3.886  27.173   0.722  0.2297 -0.0224  0.0227
    1W        W59586  24.678  21.262   3.469  0.1540  0.0721  0.2044
    1W        W59587  14.620  26.597   7.740  0.1070 -0.1067  0.0115
    1W        W59588   7.163  27.413   7.837 -0.1209 -0.1077  0.1528
    1W        W59589  22.439   1.753   1.103  0.3103  0.1046  0.2877
    1W        W59590  28.743  22.585   0.634  0.2249 -0.2854 -0.0384
    1W        W59591  20.662  22.909   7.432 -0.1439  0.0310 -0.0639
    1W        W59592   9.182  24.045   2.265  0.1006 -0.0738 -0.0256
    1W        W59593   7.550  21.217   6.889  0.1063  0.1471 -0.0333
    1W        W59594  15.863  28.151   6.770 -0.1467 -0.1509  0.4199
    1W        W59595  16.193   8.410   0.643 -0.0649  0.1155  0.1278
    1W        W59596  12.931  21.562   1.540 -0.0547  0.0848  0.2065
    1W        W59597  24.780   8.405   7.427  0.0565 -0.0355  0.0750
    1W        W59598  29.080  21.695   1.771  0.5976 -0.1485 -0.1819
    1W        W59599   2.219  12.152   7.850  0.0553  0.2619  0.0352
    1W        W59600   8.066  10.417   0.468 -0.4015  0.2764 -0.0644
    1W        W59601  17.269  21.359   2.569  0.0563 -0.1394 -0.0680
    1W        W59602  18.654  23.396   2.234 -0.0576 -0.3259  0.0658
    1W        W59603  24.926  17.785   0.464 -0.3853 -0.3305 -0.0585
    1W        W59604  12.750  12.900   1.396  0.2935  0.5131 -0.2641
    1W        W59605  23.120   2.671   6.242 -0.3241  0.3213  0.0376
    1W        W59606   3.099  20.727   8.340  0.0392 -0.1196  0.2364
    1W        W59607  16.694  13.073   2.427  0.1377  0.0274 -0.1423
    1W        W59608  22.112  15.149   8.950  0.2259  0.0670  0.2934
    1W        W59609  24.294  18.895   7.658 -0.1192  0.0381  0.0623
    1W        W59610  25.884  27.559   7.268 -0.2943  0.2329  0.1910
    1W        W59611  17.566  23.037   2.180  0.1020 -0.0280 -0.0549
    1W        W59612   5.400  14.309   6.993 -0.0349  0.2747  0.1234
    1W        W59613  28.919  26.043   2.844  0.2691 -0.4860  0.4845
    1W        W59614  19.324  25.784   0.074 -0.1756  0.2704 -0.2198
    1W        W59615  17.860   5.772   7.616  0.1766 -0.2778  0.0287
    1W        W59616  24.948  11.776   0.751 -0.0185 -0.4074  0.4155
    1W        W59617  23.892  22.565   7.744  0.0778 -0.1326  0.3202
    1W        W59618   1.730   2.401   7.413 -0.0893 -0.0811 -0.0468
    1W        W59619   1.543  17.468   0.336  0.1749 -0.1391 -0.0390
    1W        W59620  20.105   8.133   7.652  0.1425 -0.0432  0.2967
    1W        W59621  17.213  17.372   1.532 -0.0063 -0.2324 -0.3140
    1W        W59622   4.747  26.262   2.133 -0.0840  0.1820  0.0941
    1W        W59623   7.626  18.158   7.099  0.0292  0.0050  0.1325
    1W        W59624   3.618  13.891   8.028  0.1917 -0.1561  0.0235
    1W        W59625  24.844  19.553   9.654 -0.0162  0.3491 -0.2944
    1W        W59626  22.493  13.911   0.719  0.0063  0.3144  0.0785
    1W        W59627  23.740  21.410   8.960  0.1904 -0.2099 -0.0987
    1W        W59628  13.639  19.065   9.548 -0.2691  0.1529 -0.2526
    1W        W59629  28.651  16.531   7.966 -0.1648 -0.1834 -0.0204
    1W        W59630  16.653  29.230   6.948  0.2876 -0.3148 -0.3167
    1W        W59631   2.949  26.192   9.082  0.1811  0.0369 -0.0651
    1W        W59632  23.571  20.001   2.535  0.0481 -0.1611 -0.0396
    1W        W59633  16.796  20.702   2.379 -0.0543 -0.2579  0.1134
    1W        W59634  19.835   0.870   9.018 -0.0069 -0.1039 -0.2484
    1W        W59635   9.651  21.033   8.275  0.2825 -0.0278 -0.0110
    1W        W59636  24.108  28.868   7.608 -0.0589 -0.1083 -0.4569
    1W        W59637  28.468  10.801   7.462 -0.0704 -0.3789 -0.0874
    1W        W59638  23.410   1.207   1.227  0.2075 -0.0942  0.4421
    1W        W59639  19.741  29.158   0.659  0.0122  0.2243 -0.0196
    1W        W59640   1.787  17.976   8.690 -0.0632  0.0815 -0.0566
    1W        W59641  21.873  20.578   2.518 -0.3411 -0.1668 -0.2383
    1W        W59642   9.641   1.855   3.529  0.0247  0.2014  0.0465
    1W        W59643  28.215  27.873   7.911  0.1751  0.0108 -0.2130
    1W        W59644   6.040  29.188   0.013 -0.2735 -0.0898 -0.2472
    1W        W59645  14.354   3.601   7.031  0.1945 -0.0401  0.0778
    1W        W59646  29.138  22.423   0.874  0.1002 -0.0522 -0.1186
    1W        W59647  13.371  13.629   7.556 -0.0137  0.0958 -0.2047
    1W        W59648   5.523  10.334   8.462  0.0399 -0.1482 -0.1850
    1W        W59649   0.251   0.237   1.097 -0.1387 -0.4904 -0.1771
    1W        W59650  10.410  22.259   9.481 -0.0814 -0.0553  0.1572
    1W        W59651   9.343  21.022   7.865 -0.0799 -0.0928 -0.1854
    1W        W59652  14.191  13.789   0.486  0.4693  0.3133  0.1603
    1W        W59653  18.607   7.051   1.188  0.0820 -0.0393 -0.0397
    1W        W59654   6.390  23.022   7.216  0.0549  0.0866 -0.2242
    1W        W59655  14.691  23.972   7.701 -0.2459  0.0563 -0.2538
    1W        W59656   6.769  10.825   2.629  0.1018 -0.1820  0.2393
    1W        W59657   5.431  14.458   1.905  0.1985 -0.3070 -0.0195
    1W        W59658  19.296  20.020   7.500  0.0569 -0.2532  0.0477
    1W        W59659  15.788   8.967   9.577 -0.1772  0.0673  0.1749
    1W        W59660   4.873  29.120   1.207  0.1257 -0.2357 -0.0984
    1W        W59661   7.130  23.893   9.361 -0.2166  0.0579 -0.1868
    1W        W59662  19.577   1.882   0.599  0.3660 -0.0666 -0.2376
    1W        W59663  24.259   9.649   1.975 -0.2298  0.1727 -0.1811
    1W        W59664  13.763  12.140   7.704 -0.1523  0.1475  0.0970
    1W        W59665   3.909  17.807   1.905 -0.3326  0.3837 -0.4138
    1W        W59666  14.445   2.656   2.214 -0.1106  0.1613 -0.3239
    1W        W59667  24.608  18.179   0.759 -0.1036 -0.0898  0.0584
    1W        W59668   3.102  17.929   8.179 -0.0283  0.2211 -0.0608
    1W        W59669  27.864   1.935   8.723 -0.2354  0.2304  0.0431
    1W        W59670  19.678  12.039   0.578  0.4574  0.0195 -0.0506
    1W        W59671   1.449  28.692   2.392  0.0456 -0.1059  0.0226
    1W        W59672   2.104   4.097   0.102  0.0378  0.3508 -0.2135
    1W        W59673  27.046  10.446   9.241  0.0167  0.1631  0.0804
    1W        W59674  27.407   8.695   1.866 -0.0613  0.1722  0.2031
    1W        W59675  15.867   9.167   0.356 -0.1184 -0.1151 -0.0208
    1W        W59676   1.290  14.749   8.735 -0.0522  0.3704 -0.0090
    1W        W59677   1.968  28.257   8.655  0.0794  0.1978  0.2639
    1W        W59678   3.731  26.822   2.605  0.1913  0.0738 -0.1823
    1W        W59679  18.132   0.776   2.278  0.1936  0.3068 -0.2651
    1W        W59680  15.461  17.101   8.108  0.1336  0.0259  0.0152
    1W        W59681  27.450  12.927   8.166  0.1571 -0.0363  0.0628
    1W        W59682   9.219  27.464   8.583  0.1139 -0.1796 -0.2974
    1W        W59683  22.675  25.100   8.014 -0.3013 -0.0146 -0.1452
    1W        W59684   1.383   7.712   0.383 -0.1464 -0.0294 -0.0224
    1W        W59685  29.178  10.172   0.694 -0.0226  0.1122  0.3001
    1W        W59686   5.055  27.690   2.461  0.1158 -0.1193  0.1598
    1W        W59687  22.442  27.751   0.522  0.3557 -0.0851  0.0515
    1W        W59688  16.637   7.768   9.221  0.1040  0.0391  0.1305
    1W        W59689  10.145  17.472   1.076  0.0396  0.1981  0.1732
    1W        W59690  14.683   1.486   6.958 -0.4210  0.1397  0.1208
    1W        W59691  10.690  13.498   1.353  0.1062 -0.1585  0.0809
    1W        W59692   8.416   8.349   1.932 -0.0306 -0.1284 -0.0267
    1W        W59693  11.972  10.372   8.190  0.1378 -0.2318  0.3482
    1W        W59694   2.795  14.480   6.742  0.0274 -0.0419  0.2080
    1W        W59695  23.199   3.420   7.339 -0.1753  0.0852 -0.0439
    1W        W59696   9.032   4.197   1.809 -0.2186 -0.1769  0.2378
    1W        W59697  15.506  17.594   0.328  0.1656  0.0149  0.1363
    1W        W59698  19.485  20.214   2.913  0.1515  0.1203  0.0803
    1W        W59699  25.670  14.576   1.560 -0.3377 -0.1741 -0.2875
    1W        W59700  28.552  26.966   6.612 -0.2263  0.3884  0.0867
    1W        W59701   3.167  17.693   2.240  0.0388  0.0773  0.0095
    1W        W59702  18.855  28.127   8.559 -0.1621 -0.2035 -0.0801
    1W        W59703  23.233   6.885   9.431  0.1091 -0.0398  0.0383
    1W        W59704  28.888  10.004   8.306 -0.0534 -0.2848 -0.3028
    1W        W59705  23.423  25.565   0.055 -0.0853 -0.0054  0.0432
    1W        W59706  10.695   7.967   9.417 -0.2301  0.2031  0.0104
    1W        W59707  10.635  20.620   0.374  0.1845  0.0149 -0.0092
    1W        W59708  10.275  18.979   9.658 -0.0878  0.1497 -0.2147
    1W        W59709  26.229  28.442   9.364  0.0385  0.1163 -0.1807
    1W        W59710   3.037   4.869   6.688 -0.1374 -0.2657 -0.2687
    1W        W59711  28.394  28.829   7.066  0.1008 -0.0519  0.1317
    1W        W59712   8.141   0.869   1.585 -0.4190 -0.0359 -0.1316
    1W        W59713  14.942  15.094   9.244  0.2713  0.1616  0.2109
    1W        W59714  23.847  29.152   9.429  0.1321 -0.3209  0.0585
    1W        W59715   1.324   0.878   2.483 -0.1223 -0.0255  0.1082
    1W        W59716  19.199  20.295   9.516 -0.1175 -0.0782  0.0699
    1W        W59717   6.929   8.608   8.281  0.2707 -0.0397  0.1328
    1W        W59718  27.344  17.536   1.332 -0.5442 -0.2421 -0.1014
    1W        W59719   1.427  28.110   7.767 -0.2904  0.3662 -0.0327
    1W        W59720  23.377   1.098   8.468 -0.2456  0.1063  0.0942
    1W        W59721   7.653  27.646   1.795  0.1018  0.1877 -0.0880
    1W        W59722   0.221  24.542   6.170 -0.2354  0.3454  0.0133
    1W        W59723  12.067   4.995   3.839  0.0748  0.0649 -0.3225
    1W        W59724   5.118  12.323   9.311  0.0721  0.0319 -0.0779
    1W        W59725   5.717  29.063   8.872 -0.1767 -0.0031 -0.1243
    1W        W59726  15.556   4.152   3.194  0.0331  0.0777  0.2146
    1W        W59727  10.692   4.538   1.831 -0.1899  0.1468 -0.1520
    1W        W59728   2.277   4.116   2.244  0.2479  0.2468  0.2860
    1W        W59729  28.879  14.498   6.244  0.0172  0.0209  0.0554
    1W        W59730  11.103  19.044   1.950 -0.0648  0.2695 -0.0863
    1W        W59731   9.520   6.548   0.561 -0.1321 -0.1305 -0.0633
    1W        W59732   1.098  14.750   6.562  0.0550  0.0408  0.1103
    1W        W59733   9.521  24.270   9.423  0.1013  0.0085  0.2919
    1W        W59734   3.083  26.991   7.686  0.0637  0.4234  0.0792
    1W        W59735  15.100  29.047   0.163 -0.3042 -0.0546  0.1024
    1W        W59736  27.690  26.939   7.179 -0.2866 -0.0049  0.1869
    1W        W59737  12.038  11.117   0.692 -0.1483 -0.0148 -0.0629
    1W        W59738  19.250   5.255   8.728 -0.0514 -0.3047  0.1443
    1W        W59739  25.225  19.645   0.404  0.3341  0.1140  0.2199
    1W        W59740  22.888  23.519   0.698  0.0850 -0.1120 -0.0134
    1W        W59741  21.658  23.257   6.478  0.1199  0.0639 -0.0286
    1W        W59742  23.042  13.724   9.216 -0.1662 -0.3720 -0.1826
    1W        W59743  20.364   6.557   3.738 -0.3222  0.3094  0.4556
    1W        W59744  26.056  16.462   0.434 -0.0539 -0.0764 -0.0617
    1W        W59745  28.960  19.903   0.071  0.2454  0.1142  0.1581
    1W        W59746  19.677   9.901   9.174 -0.1389  0.2015  0.0296
    1W        W59747  24.538  19.858   2.789  0.0732  0.1131  0.1117
    1W        W59748   3.078  20.109   8.417  0.1073  0.1709  0.2794
    1W        W59749  12.506   3.406   3.032  0.1345 -0.0605 -0.1110
    1W        W59750  24.360  23.893   1.133  0.2628  0.1923 -0.0519
    1W        W59751   1.212  14.286   6.877 -0.0242 -0.1100  0.0198
    1W        W59752  13.251  28.945   2.023  0.1130 -0.1264  0.2263
    1W        W59753  25.426  16.959   7.978 -0.0623  0.2656 -0.1659
    1W        W59754  19.110  13.339   1.472  0.1821 -0.0749 -0.2856
    1W        W59755  27.171  13.157   5.722  0.2086  0.0938  0.2373
    1W        W59756  24.453   0.630   0.212 -0.0554 -0.2506 -0.1081
    1W        W59757  13.035  12.999   8.830  0.2477 -0.2152  0.2313
    1W        W59758   6.088   8.076   1.105 -0.2397  0.1371 -0.2437
    1W        W59759  25.893   1.448   2.881 -0.1571 -0.3226  0.4068
    1W        W59760  17.428  28.162   7.818 -0.1162  0.0981  0.1815
    1W        W59761  17.047  14.114   6.807 -0.0947  0.2583 -0.4399
    1W        W59762   6.661  12.970   6.733  0.0094  0.1245 -0.0085
    1W        W59763   9.058  29.026   8.273  0.1804  0.0556  0.2559
    1W        W59764  25.080  14.811   7.259 -0.1179  0.0504 -0.0038
    1W        W59765  17.906   4.979   2.912  0.2359 -0.0116 -0.1750
    1W        W59766   9.808  11.471   6.815  0.0221  0.1474  0.2245
    1W        W59767   7.707  14.493   9.515 -0.2245  0.0663 -0.1995
    1W        W59768  17.845   5.469   9.670  0.0972 -0.1065 -0.1031
    1W        W59769   5.028  10.900   8.969  0.3232  0.1631  0.0571
    1W        W59770  14.422  22.490   7.379  0.2806 -0.1056  0.0949
    1W        W59771  29.362   6.999   8.163  0.1643 -0.1397  0.2620
    1W        W59772   2.365   1.723   7.817  0.0210 -0.0074  0.1047
    1W        W59773   8.813  13.183   9.230  0.0497  0.1856  0.1711
    1W        W59774   1.643  14.525   9.569 -0.1236 -0.1082 -0.1853
    1W        W59775  11.818   5.402   2.160 -0.1754  0.0166 -0.0563
    1W        W59776  13.347  19.840   9.161  0.0489  0.1569 -0.1139
    1W        W59777   5.543   1.199   7.351 -0.2144 -0.1665  0.0015
    1W        W59778  10.536  19.600   8.627  0.1998 -0.1940  0.1174
    1W        W59779  19.161  14.547   9.232  0.1323 -0.0486 -0.0914
    1W        W59780  11.185   4.682   1.294 -0.1601  0.2337  0.0866
    1W        W59781  14.243   7.613   1.714 -0.0862 -0.0360  0.0535
    1W        W59782   6.069   5.318   2.409 -0.0285 -0.0500 -0.0471
    1W        W59783   1.582   3.069   9.493 -0.1625  0.2059 -0.0116
    1W        W59784  20.116  14.690   9.408  0.1448  0.2695  0.0712
    1W        W59785  23.286  13.777   1.122  0.0394 -0.1502 -0.1008
    1W        W59786   5.307   9.185   1.203 -0.1139 -0.0352 -0.0581
    1W        W59787  29.031   0.636   1.740  0.1487 -0.0592 -0.0699
    1W        W59788  21.584  15.015   1.037 -0.0785  0.0039 -0.0164
    1W        W59789  17.390  26.213   2.066 -0.0379  0.4235 -0.1333
    1W        W59790  15.837   6.091   7.257  0.1857  0.0163 -0.0620
    1W        W59791  19.069  19.995   1.115 -0.1759  0.1051 -0.1220
    1W        W59792  25.048  13.514   6.817  0.0105 -0.3443  0.1097
    1W        W59793  27.295  29.209   6.634 -0.0773  0.1083 -0.4142
    1W        W59794   3.161  13.350   1.910 -0.1781  0.0595 -0.0993
    1W        W59795   1.554   5.830   6.548  0.2496 -0.2865  0.0348
    1W        W59796   0.855   8.712   1.442 -0.2160 -0.2107 -0.0247
    1W        W59797   9.977  27.536   2.264 -0.3790  0.0873  0.2224
    1W        W59798   8.590  22.568   1.238 -0.1330  0.4611  0.3165
    1W        W59799  18.002   4.866   7.181  0.0526 -0.0125 -0.2422
    1W        W59800   7.995  21.293   7.856  0.0033 -0.0079  0.2227
    1W        W59801   3.625  13.740   9.188 -0.4284  0.2411 -0.0993
    1W        W59802  12.897  23.631   0.304  0.1682 -0.0235 -0.0423
    1W        W59803  17.030  23.705   6.387  0.1328 -0.2111  0.1551
    1W        W59804  17.842  13.801   1.257  0.2413 -0.0877  0.0482
    1W        W59805  28.366  22.469   0.379  0.1520 -0.1774 -0.0124
    1W        W59806  11.563  20.261   7.241 -0.0304 -0.2220 -0.2085
    1W        W59807  23.433  26.722   7.096 -0.1570 -0.1128 -0.1287
    1W        W59808   9.933  23.706   0.345  0.0876 -0.3289  0.1447
    1W        W59809   7.836  15.211   7.583  0.0855  0.2639 -0.0751
    1W        W59810  10.512  20.607   2.852 -0.0987 -0.0386  0.0299
    1W        W59811  17.120  18.594   2.169 -0.0009  0.0857 -0.1558
    1W        W59812   1.081  19.322   0.305 -0.1043  0.1749 -0.1257
    1W        W59813  15.904  22.391   9.258  0.0933  0.0426 -0.1566
    1W        W59814  11.462  15.114   7.649  0.1733  0.0701 -0.2713
    1W        W59815  26.706   0.726   7.281 -0.0533  0.1103 -0.2274
    1W        W59816  11.734   1.417   0.908  0.2452  0.1054  0.1384
    1W        W59817   3.382   8.621   8.449 -0.1736 -0.1299 -0.2962
    1W        W59818  17.889  16.477   1.426 -0.0831  0.0813 -0.0391
    1W        W59819  12.003  24.714   8.016 -0.0509  0.0804  0.0792
    1W        W59820  19.485  18.683   0.982  0.2733 -0.1912  0.4408
    1W        W59821  12.873   3.804   2.934  0.1784  0.2740  0.5623
    1W        W59822  20.608  15.248   8.274  0.0256  0.1064 -0.0873
    1W        W59823   7.415   8.438   7.460 -0.1157 -0.3931  0.0477
    1W        W59824   9.783   5.480   0.722 -0.1849 -0.1600 -0.2227
    1W        W59825   5.908   0.521   1.084 -0.2916  0.2826  0.0057
    1W        W59826  25.555   0.721   0.620  0.0845 -0.4268  0.2476
    1W        W59827  20.337  25.390   2.773  0.0151  0.1142  0.0906
    1W        W59828  19.887   2.139   8.422 -0.1430 -0.2780  0.1063
    1W        W59829  10.130  29.214   8.483 -0.2093  0.4028 -0.3175
    1W        W59830  28.377   5.758   7.141 -0.1917  0.1263 -0.2663
    1W        W59831  25.446   6.650   1.379  0.0604 -0.2573 -0.0703
    1W        W59832  10.049  12.536   0.895  0.0152 -0.0099  0.2708
    1W        W59833  11.018  17.155   8.711  0.1921  0.2233  0.0119
    1W        W59834  15.667  22.013   8.970 -0.0835  0.0587 -0.2485
    1W        W59835   1.787   1.279   6.185 -0.0549  0.3011  0.1302
    1W        W59836  17.330  28.238   7.217 -0.0078 -0.0669 -0.1291
    1W        W59837  15.050  17.545   8.982 -0.1214 -0.1295 -0.3768
    1W        W59838  20.516  16.486   1.126  0.0150  0.0690  0.1626
    1W        W59839   3.946  12.437   2.896 -0.0288  0.1944 -0.2368
    1W        W59840  16.803   0.367   2.735 -0.2057  0.2023 -0.1933
    1W        W59841  13.211  16.839   7.514 -0.0722  0.0132 -0.2217
    1W        W59842  27.895  27.968   1.263  0.1286 -0.0715 -0.2067
    1W        W59843   0.766  20.277   1.340  0.0745  0.0227  0.0189
    1W        W59844  15.414  23.383   8.156  0.1076  0.1209 -0.1695
    1W        W59845  18.948  26.807   0.644 -0.1323  0.3077 -0.0773
    1W        W59846  13.970   7.023   1.020 -0.0916  0.1394  0.0014
    1W        W59847  16.679  28.122   1.857  0.2949 -0.1845 -0.2266
    1W        W59848   9.007  17.065   8.120 -0.0351  0.0980 -0.1698
    1W        W59849  19.312   2.940   7.164  0.2387  0.2276 -0.1373
    1W        W59850  23.084  16.974   7.649 -0.2426 -0.1323 -0.1418
    1W        W59851   1.292   8.645   0.667 -0.0790  0.0723 -0.0520
    1W        W59852   0.021  15.936   9.379  0.1006 -0.0549 -0.0053
    1W        W59853  13.297   5.660   3.619 -0.0548 -0.0946  0.3769
    1W        W59854  17.340  12.387   2.531  0.1067  0.4513 -0.1746
    1W        W59855  12.254   6.897   8.985 -0.0619  0.1489 -0.3172
    1W        W59856  26.742  21.122   1.723 -0.0526 -0.0718  0.0288
    1W        W59857  13.397  28.578   8.321 -0.0337 -0.0112 -0.2693
    1W        W59858  24.513  20.766   0.567  0.1967  0.0502 -0.0838
    1W        W59859   8.578  13.495   1.032 -0.0794 -0.2628 -0.2353
    1W        W59860   4.249  10.707   0.086  0.0419 -0.4244 -0.0517
    1W        W59861  26.457  13.270   0.263  0.2062 -0.0682  0.0830
    1W        W59862  11.661   4.465   0.373  0.1666 -0.1772 -0.2811
    1W        W59863   9.719  27.477   3.181  0.1230  0.0135  0.1712
    1W        W59864   3.768  23.134   2.019  0.0374  0.1387  0.2447
    1W        W59865   7.931  17.529   8.346  0.0298  0.1410  0.3463
    1W        W59866  17.510   1.929   2.940 -0.4419  0.0020 -0.3437
    1W        W59867  17.127  23.485   7.252 -0.1687  0.0561 -0.1964
    1W        W59868  21.843  22.774   8.212 -0.2010 -0.2360 -0.0572
    1W        W59869  20.001   5.774   9.348 -0.0120 -0.0453 -0.1075
    1W        W59870  10.823  25.583   7.451  0.0113  0.1670 -0.0829
    1W        W59871  11.860  27.287   7.859  0.1304 -0.0412  0.4036
    1W        W59872  22.944  16.257   1.528  0.0788  0.0257 -0.0251
    1W        W59873  29.094   4.582   6.646 -0.1568  0.0957 -0.2028
    1W        W59874   7.547  12.905   8.036 -0.3213 -0.0751  0.1011
    1W        W59875   0.574  19.859   9.049 -0.3371 -0.2780  0.1341
    1W        W59876  23.897  12.716   9.543 -0.0280  0.0122 -0.0886
    1W        W59877  20.419  15.103   7.785 -0.2062 -0.0214 -0.0512
    1W        W59878  27.302  10.243   2.286 -0.0543  0.0247  0.2061
    1W        W59879  20.939   3.045   8.389 -0.2017  0.2387  0.1215
    1W        W59880   2.436  20.544   0.624 -0.1385  0.1227 -0.4031
    1W        W59881  17.882   1.391   1.940 -0.0986 -0.1481 -0.1122
    1W        W59882  17.953  28.180   2.302 -0.3156 -0.0191  0.0308
    1W        W59883  19.427  20.160   8.108  0.2034  0.0346 -0.2297
    1W        W59884  11.783  19.781   0.491 -0.0666  0.2312 -0.4446
    1W        W59885  14.508  12.458   0.210 -0.0967  0.3307 -0.0649
    1W        W59886   8.031  22.500   7.684 -0.1114  0.0606  0.1010
    1W        W59887   7.457   0.910   7.412 -0.1400 -0.1928 -0.0737
    1W        W59888  17.332  29.040   7.781 -0.1183 -0.2750  0.0131
    1W        W59889  18.226  16.362   9.012 -0.2848 -0.0917 -0.0829
    1W        W59890   1.297  24.755   0.664 -0.1775 -0.1025  0.1737
    1W        W59891  20.897   7.066   9.052 -0.3562 -0.0110 -0.0305
    1W        W59892  19.313  23.427   0.807 -0.2326 -0.1522 -0.1054
    1W        W59893  28.807   0.446   2.975  0.1533  0.5098  0.2663
    1W        W59894  16.002   7.013   1.125  0.2405  0.0655  0.4679
    1W        W59895  25.293  14.489   1.918  0.0088 -0.1783  0.1601
    1W        W59896   7.366   3.227   0.546 -0.3284 -0.1251 -0.0562
    1W        W59897  24.686  24.730   0.091 -0.5050  0.0830  0.0509
    1W        W59898   0.691  14.665   6.946 -0.4067 -0.1596  0.2095
    1W        W59899   0.865  17.847   0.590  0.1429  0.2553  0.0489
    1W        W59900  25.732  25.364   7.290 -0.2214  0.1472  0.1474
    1W        W59901   5.296  16.160   6.704 -0.3306  0.0848  0.0982
    1W        W59902   6.043  10.444   2.062  0.0754  0.1480 -0.1076
    1W        W59903   2.408   3.958   8.063  0.4886  0.4565  0.0604
    1W        W59904  25.956  14.280   6.268 -0.0589 -0.1940 -0.0829
    1W        W59905  24.489  13.557   6.869 -0.0533 -0.1743 -0.1297
    1W        W59906  25.361  19.733   0.880  0.1852  0.1410 -0.2212
    1W        W59907   0.791  16.833   7.759  0.2411 -0.1204  0.4555
    1W        W59908  11.198   2.508   2.569 -0.2536 -0.1190  0.0780
    1W        W59909  28.775  25.640   8.759  0.2167  0.3951  0.0425
    1W        W59910   3.494  13.543   2.427  0.0294  0.2959 -0.2617
    1W        W59911   5.390  19.883   6.934 -0.0255 -0.3128  0.1236
    1W        W59912  10.005  27.244   9.483  0.0331  0.1155 -0.1866
    1W        W59913   6.900  16.368   1.447  0.2476  0.1681 -0.0623
    1W        W59914  21.143  25.376   7.526 -0.1221  0.2813  0.2369
    1W        W59915  28.719  19.733   0.570  0.2728  0.0251  0.0373
    1W        W59916   5.927  17.968   9.574  0.1642  0.2054 -0.1768
    1W        W59917  17.835   7.160   3.302  0.0462  0.0308  0.0199
    1W        W59918   0.124   6.300   0.905 -0.0442 -0.0598  0.4228
    1W        W59919  16.989   2.395   7.177 -0.1237  0.0499  0.1537
    1W        W59920  15.677   3.370   3.153 -0.1418  0.2894  0.0888
    1W        W59921  27.081  16.410   5.427  0.1739  0.3674  0.1042
    1W        W59922  27.000   2.411   1.897  0.0682  0.2450  0.0360
    1W        W59923  14.749   4.570   3.376  0.1540  0.1480  0.1411
    1W        W59924   4.504  28.772   1.112 -0.0075  0.2057  0.0618
    1W        W59925  15.192  14.428   0.285  0.3070 -0.0764  0.0337
    1W        W59926   7.542  11.788   2.230  0.0881  0.1339  0.0636
    1W        W59927  13.870  15.832   1.053 -0.0206 -0.0033  0.0765
    1W        W59928   1.719   4.236   2.964 -0.0324  0.1849  0.0202
    1W        W59929  26.646  22.959   1.586  0.4480 -0.0929 -0.2325
    1W        W59930   5.606   1.631   7.669  0.0484  0.3973  0.1522
    1W        W59931  27.422  13.071   2.292  0.0073 -0.1361 -0.1048
    1W        W59932   8.632   3.327   2.083  0.0051 -0.2219 -0.0359
    1W        W59933   8.271   7.788   2.252  0.0908 -0.2461  0.2309
    1W        W59934   3.469  21.317   5.695  0.2955  0.2003 -0.2067
    1W        W59935  25.249   6.409   0.906 -0.0315  0.3992 -0.1707
    1W        W59936  25.228  25.477   8.320  0.3292  0.0527 -0.3796
    1W        W59937   4.795   3.789   2.519 -0.1139  0.0800 -0.1406
    1W        W59938  13.264  22.354   3.467 -0.0832  0.1212  0.0792
    1W        W59939  24.603   5.996   2.258 -0.0994  0.0951 -0.0963
    1W        W59940   1.225  12.327   0.567  0.4061  0.0802  0.0943
    1W        W59941  14.648   1.469   2.921  0.0839 -0.0807 -0.1819
    1W        W59942   8.783   3.877   0.712 -0.0466  0.1012 -0.0335
    1W        W59943  11.494  18.644   1.861 -0.0280  0.2596 -0.0995
    1W        W59944   9.763  29.144   0.836  0.1148 -0.3238  0.6032
    1W        W59945  13.457  20.657   0.235 -0.3529  0.0863 -0.4089
    1W        W59946   7.457  28.272   0.239 -0.2705  0.1652 -0.2967
    1W        W59947  15.422   2.516   3.513  0.0734 -0.0736  0.1423
    1W        W59948   6.785   9.407   2.399  0.0350 -0.3900  0.1044
    1W        W59949  20.175   7.586   3.199  0.0689 -0.0807  0.0227
    1W        W59950  10.718  15.095   8.186  0.1179  0.0967 -0.1588
    1W        W59951   3.352  16.612   2.406  0.0981 -0.0284 -0.0160
    1W        W59952  23.712   0.207   0.159  0.3489  0.0405  0.1871
    1W        W59953  14.127  15.076   8.272 -0.2068  0.0991 -0.1802
    1W        W59954  11.212   0.169   1.567 -0.2308 -0.3427 -0.2062
    1W        W59955   5.376  13.193   9.247 -0.2499  0.0005 -0.1432
    1W        W59956   6.062  25.044   1.472  0.2548  0.6207  0.3875
    1W        W59957  12.641   0.502   3.833  0.0683 -0.1738  0.1861
    1W        W59958  15.928  24.926   9.535  0.2697 -0.2655  0.4867
    1W        W59959  14.564  21.686   8.609  0.0891  0.0237 -0.0536
    1W        W59960   1.019   2.182   9.011 -0.3127  0.0361  0.2168
    1W        W59961  17.893  29.211   3.261  0.0893 -0.0921  0.0123
    1W        W59962   1.214   3.310   7.552 -0.5262  0.1751 -0.2839
    1W        W59963  22.986  25.037   0.567  0.0695 -0.1007  0.2925
    1W        W59964   6.295  29.011   3.789  0.0707 -0.1256 -0.2505
    1W        W59965  10.598  26.138   0.621  0.1225  0.1418  0.0605
    1W        W59966  24.378  18.676   1.082 -0.3182  0.0974  0.2516
    1W        W59967   2.411   1.237   7.407 -0.1207 -0.0685 -0.1711
    1W        W59968  22.707   8.745   1.360 -0.0085  0.1173 -0.0009
    1W        W59969   7.358   4.678   2.638 -0.2333 -0.1771  0.1405
    1W        W59970  24.966  15.278   7.521  0.1941  0.1286  0.0940
    1W        W59971  10.603   2.644   1.794 -0.0074 -0.0367  0.0521
    1W        W59972  13.724  28.797   2.032 -0.0182  0.2763 -0.0129
    1W        W59973   0.648  24.732   6.413  0.2731  0.0939 -0.3303
    1W        W59974  16.745  16.510   7.105 -0.0260  0.2943 -0.2549
    1W        W59975  22.052  15.034   0.388  0.2076  0.1041 -0.0588
    1W        W59976   3.395   1.980   8.062  0.0202 -0.0285  0.0314
    1W        W59977   1.494   2.394   8.855 -0.2273 -0.1224  0.2668
    1W        W59978  23.483   5.046   9.680  0.3771  0.0284  0.1632
    1W        W59979   7.259   5.046   7.205 -0.2602 -0.1091  0.2190
    1W        W59980  13.292   1.056   8.008 -0.0501 -0.1493 -0.0287
    1W        W59981   9.215  17.468   8.275  0.4668 -0.2575  0.2423
    1W        W59982  28.048   9.897   3.039 -0.0412 -0.4274  0.1127
    1W        W59983   7.170  10.394   0.233 -0.1716  0.0790 -0.0154
    1W        W59984   8.449  10.101   2.140 -0.5183  0.2785 -0.0552
    1W        W59985  21.640   4.272   8.334  0.0161  0.0225 -0.2075
    1W        W59986   6.226  10.699   8.480 -0.1897 -0.0648 -0.0637
    1W        W59987  28.103   3.284   1.519 -0.0538 -0.2318 -0.2728
    1W        W59988  22.908   7.399   7.612  0.0887  0.0952 -0.0300
    1W        W59989   5.249   0.610   7.113  0.1834 -0.0705  0.0842
    1W        W59990  25.262  10.517   7.734 -0.0517  0.1944  0.0099
    1W        W59991   2.114  11.842   1.407  0.0927  0.0429  0.0637
    1W        W59992   0.292   6.620   9.552  0.1457 -0.2459 -0.0348
    1W        W59993  20.697   5.465   9.054 -0.0686  0.4013  0.0879
    1W        W59994   6.219  17.704   9.227  0.0596 -0.1117  0.0964
    1W        W59995   8.747  12.663   7.958  0.2074 -0.0739 -0.4290
    1W        W59996  10.156  16.353   1.843  0.0052  0.0422  0.0868
    1W        W59997   5.582   8.506   9.585 -0.0353  0.2344  0.2042
    1W        W59998   1.588   5.015   8.314  0.1608  0.0675  0.0081
    1W        W59999  24.732   1.410   0.538 -0.3358  0.2051 -0.0664
    1W        W60000  22.938   7.051   0.112  0.1774  0.1073  0.1282
    1W        W60001  23.828  10.586   1.022  0.0852 -0.3556  0.1258
    1W        W60002   6.021   9.878   6.861 -0.0676  0.2172 -0.0920
    1W        W60003  25.159  22.020   0.140 -0.3902 -0.1207 -0.0898
    1W        W60004  23.496   3.080   8.143  0.0011  0.0593  0.0211
    1W        W60005  20.811   3.510   9.168 -0.1760  0.1310  0.1047
    1W        W60006   8.223  25.102   0.410 -0.0106  0.2295  0.0199
    1W        W60007   4.273  17.569   7.170  0.1107 -0.0700  0.2801
    1W        W60008   6.154  27.890   0.075 -0.0274  0.1461  0.1372
    1W        W60009   2.553   2.357   0.695  0.1407  0.1662 -0.2425
    1W        W60010  15.832  15.005   8.928 -0.2735  0.2022 -0.2563
    1W        W60011   6.373  23.550   2.129 -0.1013  0.1010 -0.0585
    1W        W60012   3.459  23.672   7.533 -0.0487  0.0313  0.0930
    1W        W60013   9.114  19.738   0.680  0.0121 -0.0728  0.1335
    1W        W60014  25.131   2.350   6.351  0.1654 -0.0133 -0.0615
    1W        W60015  14.996  17.685   0.459  0.0071  0.0323 -0.0901
    1W        W60016  18.378   6.003   7.761 -0.2070  0.1806  0.1341
    1W        W60017  13.608   2.145   4.498 -0.2179  0.1297  0.3149
    1W        W60018  21.451  23.580   2.511  0.0816  0.0907 -0.2927
    1W        W60019  22.027  12.253   8.132  0.2694 -0.3018  0.0682
    1W        W60020   3.657  22.097   2.254  0.3443  0.0165 -0.4900
    1W        W60021  26.319  24.128   8.509  0.0940 -0.2625 -0.1160
    1W        W60022  27.585   0.788   1.409  0.3260 -0.0802 -0.1999
    1W        W60023   2.868  25.495   0.260 -0.0655 -0.2272 -0.2574
    1W        W60024  27.427   9.386   7.163 -0.0504  0.1173  0.2110
    1W        W60025   5.570   7.742   7.428 -0.4084  0.1286  0.1237
    1W        W60026  12.257   2.976   8.748  0.0351  0.0170 -0.4438
    1W        W60027  22.845  14.199   7.450  0.0536  0.1929 -0.2921
    1W        W60028  10.305  22.673   9.223  0.3755  0.0171 -0.3606
    1W        W60029  27.244   6.071   9.471 -0.2397 -0.2360 -0.0709
    1W        W60030  27.008  21.462   6.512  0.1874 -0.0524 -0.0572
    1W        W60031  12.423  14.994   1.256  0.1183  0.0070  0.1719
    1W        W60032  18.692   7.383   0.036  0.0053 -0.0201 -0.0022
    1W        W60033  28.245  23.552   8.423 -0.1528 -0.1607 -0.0948
    1W        W60034  18.401  14.960   0.031 -0.2346 -0.0100  0.0704
    1W        W60035  25.519  11.691   0.971  0.0826  0.0218  0.1907
    1W        W60036  17.137   1.353   8.198  0.0604  0.0786 -0.1443
    1W        W60037  26.186   8.220   1.526  0.0288  0.0668 -0.1690
    1W        W60038  19.915  17.275   2.249  0.1175 -0.1424 -0.2139
    1W        W60039   2.808  22.080   5.732 -0.1224 -0.0467 -0.0453
    1W        W60040  23.453  26.560   9.211 -0.4337 -0.0520  0.1486
    1W        W60041  24.130  19.457   9.501  0.2186  0.1257  0.0995
    1W        W60042   8.788  10.151   7.613  0.0352  0.0747  0.0159
    1W        W60043  26.008  20.252   3.076  0.2676  0.0404 -0.4449
    1W        W60044   4.589  20.358   6.632  0.1817 -0.0036  0.0084
    1W        W60045   4.594   9.602   1.104  0.0129  0.2847 -0.0966
    1W        W60046  27.226  28.169   7.314  0.0513  0.0531  0.1461
    1W        W60047   5.505  29.160   8.407 -0.3036 -0.0528  0.3009
    1W        W60048  20.046  19.084   1.607 -0.0952  0.1582 -0.2280
    1W        W60049   2.221   9.427   7.405 -0.2821  0.3073  0.2128
    1W        W60050  27.936  13.306   8.823  0.0003  0.0391 -0.4999
    1W        W60051  26.267  13.098   1.499 -0.0280  0.2326  0.1049
    1W        W60052  25.645  26.445   1.545  0.0602  0.2248  0.0692
    1W        W60053  23.566  27.595   9.166  0.2547 -0.1286  0.0191
    1W        W60054  19.584  22.580   8.226 -0.1839  0.1587  0.1772
    1W        W60055  24.617  17.156   1.012  0.1296  0.3770  0.0827
    1W        W60056  13.720  17.138   1.532 -0.0283  0.1439 -0.1065
    1W        W60057  27.488  16.223   6.227 -0.0083  0.0866 -0.3764
    1W        W60058  27.714  24.439   6.459  0.2383 -0.0363  0.2778
    1W        W60059   6.248   3.288   7.245  0.2897 -0.4389  0.0011
    1W        W60060  13.998  22.256   0.118  0.2555 -0.1951  0.0286
    1W        W60061  24.078  26.621   6.487  0.4231  0.1968 -0.0611
    1W        W60062  12.055   8.673   8.864 -0.0519 -0.2712  0.3022
    1W        W60063   8.672   6.513   2.090  0.0502 -0.0714 -0.2005
    1W        W60064   0.596  20.661   1.593 -0.2094 -0.0560 -0.3758
    1W        W60065   1.946  26.634   7.080 -0.1666  0.3667 -0.2694
    1W        W60066  16.241  28.897   2.603 -0.2013 -0.1375  0.3017
    1W        W60067  19.692  21.433   2.892 -0.2077 -0.0400 -0.0454
    1W        W60068  24.358  17.417   7.012  0.0249  0.0458 -0.0896
    1W        W60069   3.394  13.896   2.760 -0.0628  0.0070  0.0807
    1W        W60070   1.851   4.636   1.718  0.1536 -0.3796 -0.0765
    1W        W60071   4.567   3.202   2.201  0.2368  0.1805 -0.2895
    1W        W60072  14.696  10.822   8.612 -0.1768 -0.1149 -0.0986
    1W        W60073  26.115   3.132   5.727  0.0277  0.0040 -0.0478
    1W        W60074  14.060   7.049   2.770  0.0859  0.1894  0.2237
    1W        W60075  23.828   6.498   6.811  0.0258 -0.0148  0.0192
    1W        W60076   5.776   9.790   1.416  0.0198  0.0420  0.1608
    1W        W60077  20.566  17.125   8.082 -0.1398 -0.0496  0.2124
    1W        W60078   2.714   8.193   0.831  0.1209  0.1023 -0.0389
    1W        W60079   0.019   2.471   7.250  0.0124 -0.0014  0.0719
    1W        W60080  25.002   0.278   5.953 -0.1161 -0.0571  0.0914
    1W        W60081   5.549   6.127   0.625 -0.2837  0.0382  0.2766
    1W        W60082  24.093  28.480   0.468  0.3427 -0.1359 -0.0608
    1W        W60083  23.756   1.098   7.314 -0.0009 -0.0128 -0.2055
    1W        W60084  25.689  18.111   2.197 -0.4303 -0.1121  0.0284
    1W        W60085  27.100   8.825   0.076  0.0598 -0.0090 -0.2122
    1W        W60086  27.573  22.218   1.045  0.0307  0.1781  0.3298
    1W        W60087  28.832  26.609   8.651 -0.1857  0.0272 -0.1928
    1W        W60088  10.448  19.064   1.099  0.0146  0.1860 -0.1235
    1W        W60089  15.288  25.341   1.100 -0.1162 -0.2954 -0.1804
    1W        W60090  16.364  25.218   9.450 -0.0932 -0.2744 -0.1361
    1W        W60091  14.093  17.326   8.447 -0.1299  0.2831 -0.1829
    1W        W60092  17.137  25.341   0.785  0.1539 -0.1392 -0.3158
    1W        W60093  10.188   2.411   8.687  0.0775  0.2745 -0.2745
    1W        W60094  23.286  13.212   8.525  0.0804 -0.4114 -0.2598
    1W        W60095   3.370   5.251   6.463 -0.2924 -0.3425  0.0438
    1W        W60096  18.200  12.996   2.347 -0.2325 -0.2006 -0.0081
    1W        W60097   9.029  10.493   0.100 -0.0398  0.0748 -0.0540
    1W        W60098  12.429  22.264   1.752 -0.1172  0.1082  0.3373
    1W        W60099   8.270   5.190   7.275 -0.1184  0.1226  0.1810
    1W        W60100   5.171   4.276   9.400  0.1143 -0.0705  0.0613
    1W        W60101   3.791   0.540   8.061 -0.0687  0.0066  0.4134
    1W        W60102  22.371  25.440   1.089 -0.2888  0.0655 -0.2111
    1W        W60103   0.120  11.916   7.418  0.1311  0.2287  0.0636
    1W        W60104  14.624  11.736   1.029  0.0076  0.2424 -0.1703
    1W        W60105   1.979  20.731   8.922  0.0687  0.1056 -0.2637
    1W        W60106  13.581   8.190   7.408 -0.0484 -0.2208  0.3548
    1W        W60107  26.279  26.156   9.553  0.1138  0.1480  0.0814
    1W        W60108   2.305  23.262   8.875 -0.0326  0.0386 -0.1638
    1W        W60109   2.008  26.131   1.943  0.0132  0.2362 -0.0462
    1W        W60110  25.872  28.179   7.920  0.1711 -0.0416 -0.0258
    1W        W60111  19.634   1.211   7.868  0.0333  0.1177  0.0774
    1W        W60112  23.479  19.847   3.004  0.1871  0.0943 -0.1808
    1W        W60113   4.252  26.312   1.945 -0.1587 -0.1137  0.0134
    1W        W60114  19.549  18.885   8.113 -0.0206 -0.0740 -0.0036
    1W        W60115   6.987  17.648   1.801  0.0615 -0.1377  0.0292
    1W        W60116  22.703  18.459   6.509 -0.0196  0.0363 -0.0929
    1W        W60117  25.561  16.605   0.445 -0.1714 -0.1301 -0.2058
    1W        W60118  28.571  15.626   1.669 -0.2649  0.0030 -0.0780
    1W        W60119  10.109  22.703   8.494 -0.0868 -0.1340  0.1846
    1W        W60120  22.672   4.666   6.615 -0.0032  0.1702 -0.2385
    1W        W60121  13.723   0.170   8.240  0.0938 -0.0863 -0.1783
    1W        W60122  17.541  18.935   8.194  0.1572  0.0063 -0.1608
    1W        W60123   5.896   8.437   0.881  0.1710 -0.1366  0.0860
    1W        W60124   4.359  18.473   8.542  0.2377 -0.0811 -0.1899
    1W        W60125  19.392  18.172   8.774 -0.0246  0.0242 -0.2882
    1W        W60126  15.380   8.642   0.792 -0.2049  0.1028  0.2946
    1W        W60127  19.082   4.802   0.966 -0.2151 -0.1160  0.1069
    1W        W60128   9.164   1.775   8.932 -0.1530 -0.1034  0.4694
    1W        W60129   4.768   4.536   0.743  0.0235 -0.2984  0.2153
    1W        W60130  20.434   8.585   1.300  0.0515  0.0737 -0.0846
    1W        W60131  26.012  19.327   2.753  0.2708  0.1610  0.0423
    1W        W60132  25.711  14.809   5.617 -0.1068 -0.0559  0.1209
    1W        W60133  20.806   2.812   6.293  0.1089 -0.0430 -0.0488
    1W        W60134  18.711   2.116   2.016  0.1938 -0.0407 -0.3139
    1W        W60135   1.570   7.809   7.472 -0.1396  0.4295 -0.0970
    1W        W60136   9.333   5.304   0.071  0.0643 -0.0313 -0.0437
    1W        W60137   3.275   9.168   6.999  0.0583 -0.0806 -0.1087
    1W        W60138  23.091  14.574   0.782  0.1415  0.1270 -0.1328
    1W        W60139  21.794  27.396   1.761 -0.1543 -0.2617  0.1642
    1W        W60140  13.004  21.112   1.838  0.0733  0.0635 -0.0068
    1W        W60141  22.877  11.102   6.576 -0.0685 -0.4131 -0.2748
    1W        W60142  17.775  19.936   0.151  0.0245  0.1524 -0.0007
    1W        W60143  19.302   6.076   7.440 -0.2599  0.1452  0.1390
    1W        W60144  16.752   2.793   3.500 -0.2202  0.0344  0.1530
    1W        W60145  22.010  20.480   7.952 -0.0254  0.1942 -0.0694
    1W        W60146   6.810  20.926   1.411 -0.2748 -0.1210 -0.2279
    1W        W60147  14.449  17.751   1.703 -0.1354  0.0026 -0.0349
    1W        W60148  26.861   8.653   9.361  0.0010  0.0387  0.2457
    1W        W60149   5.687  13.093   1.298 -0.1083  0.0543  0.0606
    1W        W60150  24.615  15.613   0.557 -0.1224 -0.2471  0.1874
    1W        W60151  12.717  23.633   2.773 -0.0003  0.1068 -0.2368
    1W        W60152  10.680  25.992   7.700 -0.0117  0.0443 -0.1594
    1W        W60153  21.040  22.413   6.383  0.4384 -0.1210 -0.0839
    1W        W60154  28.045  20.068   2.730  0.0435 -0.2163 -0.1469
    1W        W60155  11.677   5.684   9.653  0.1021  0.3412 -0.0001
    1W        W60156  27.958   0.649   2.940  0.0982  0.1759 -0.0776
    1W        W60157   1.865   4.759   7.973  0.0938  0.1558 -0.0299
    1W        W60158   9.536  17.483   0.551  0.1266  0.0292 -0.1759
    1W        W60159  24.932   6.578   7.350 -0.2842  0.2894 -0.0833
    1W        W60160  21.591   6.100   7.780 -0.1849 -0.0212  0.1350
    1W        W60161  14.093   9.923   0.832  0.1315  0.0481  0.0760
    1W        W60162   8.081  21.597   6.215  0.0375 -0.0016  0.1434
    1W        W60163  21.725  26.333   7.283  0.0150  0.1264  0.0624
    1W        W60164  16.724  26.792   8.186 -0.1650  0.3273 -0.0287
    1W        W60165  15.685  12.372   7.926 -0.3088  0.2478  0.0314
    1W        W60166  25.770  26.048   0.558 -0.0425  0.4189  0.0210
    1W        W60167  18.300  20.232   0.403  0.1571  0.0433  0.0073
    1W        W60168  26.438   2.149   1.284 -0.0774 -0.0048 -0.0797
    1W        W60169   9.482  17.361   0.100 -0.0585 -0.2382  0.1008
    1W        W60170   9.263   7.436   6.656 -0.3043 -0.0585 -0.2315
    1W        W60171  12.659   4.072   7.956 -0.0987 -0.1351 -0.1301
    1W        W60172   3.439   2.159   0.870  0.0642 -0.1163  0.0432
    1W        W60173   8.774  28.863   1.456  0.1720 -0.2478  0.1111
    1W        W60174  25.494  14.298   8.318  0.0129 -0.1321  0.0350
    1W        W60175   4.846   2.410   7.315  0.1457 -0.1737 -0.0531
    1W        W60176  20.989  20.002   7.224  0.1920 -0.3487  0.1712
    1W        W60177  25.209   9.893   1.279  0.1222  0.0333  0.2954
    1W        W60178   7.909  10.498   0.969  0.0971  0.0191 -0.1933
    1W        W60179   6.145   4.314   7.069  0.0531  0.0880 -0.0819
    1W        W60180  18.009  18.190   9.662 -0.2120 -0.0285 -0.0743
    1W        W60181  21.371   2.981   9.136  0.1579  0.0123  0.1871
    1W        W60182  15.976   7.579   2.195 -0.0285 -0.2616  0.0028
    1W        W60183  19.724  23.944   1.226 -0.1131  0.2355  0.0239
    1W        W60184  24.578  11.957   6.530  0.0896 -0.0879  0.1569
    1W        W60185  14.129  15.799   1.698  0.2707  0.0358 -0.2532
    1W        W60186  15.996  10.432   8.127 -0.2433  0.2065 -0.1358
    1W        W60187   8.086  17.104   7.799 -0.2055  0.1396 -0.1057
    1W        W60188   4.520  19.508   8.191  0.1334  0.0181 -0.3002
    1W        W60189  19.556  17.533   9.410 -0.0525  0.2384 -0.0531
    1W        W60190  17.963  21.711   0.742  0.0439 -0.2663 -0.1948
    1W        W60191  23.111  10.858   0.112 -0.2862  0.1687  0.5661
    1W        W60192  15.699  15.945   1.289  0.1969 -0.0491 -0.2542
    1W        W60193   3.252  26.983   7.179 -0.0138  0.0657 -0.0831
    1W        W60194  27.172   3.610   6.800 -0.0817  0.2830  0.2641
    1W        W60195   0.187  11.196   8.059  0.2139  0.1375 -0.0275
    1W        W60196  11.579   9.098   8.020  0.1003 -0.1095 -0.1818
    1W        W60197  19.667  27.328   2.921 -0.1016  0.1785  0.1250
    1W        W60198  15.643  16.851   1.936 -0.2543  0.5221 -0.1888
    1W        W60199  19.687  12.264   9.413  0.0191 -0.0723  0.0888
    1W        W60200  13.834  28.575   8.720 -0.0845  0.1328  0.2103
    1W        W60201  18.003  14.350   2.459  0.0090  0.0133  0.1307
    1W        W60202  14.705  23.912   0.776 -0.3081 -0.0116 -0.3199
    1W        W60203  24.545  21.096   9.361 -0.2284 -0.1428  0.2021
    1W        W60204  11.566  17.919   9.255  0.1707 -0.2601 -0.0444
    1W        W60205   8.784  20.006   7.792  0.2008 -0.1165  0.2166
    1W        W60206  18.265   3.316   2.169 -0.0223 -0.2657 -0.1883
    1W        W60207  13.038  24.109   0.049  0.0225  0.0632 -0.4394
    1W        W60208  20.715  24.234   3.512 -0.1125  0.3314 -0.0994
    1W        W60209  28.968  14.837   8.287 -0.1318  0.4825 -0.1187
    1W        W60210  28.913   5.786   8.052 -0.0880  0.2636 -0.1107
    1W        W60211  12.455   1.402   2.193  0.1196 -0.0920  0.0203
    1W        W60212  15.494   5.110   3.645  0.0302  0.2282 -0.1124
    1W        W60213   1.927  27.272   1.482  0.3323  0.3036  0.1087
    1W        W60214  22.276  21.825   0.611  0.0216  0.0938 -0.1502
    1W        W60215  26.274  19.825   9.132  0.1425 -0.1439  0.1412
    1W        W60216  28.818   4.717   1.877 -0.4969 -0.0392  0.0450
    1W        W60217  22.962   9.156   2.066 -0.0115 -0.0363  0.0120
    1W        W60218  23.805  22.367   0.194  0.2469 -0.1278 -0.0898
    1W        W60219  24.362  24.823   7.429 -0.0292  0.0279  0.1862
    1W        W60220  26.221  14.945   9.373 -0.2799 -0.0664  0.0290
    1W        W60221  19.810  13.359   8.610  0.3177  0.1106 -0.1133
    1W        W60222  26.945   8.549   1.985 -0.1326  0.1774 -0.0456
    1W        W60223  13.218  22.025   0.999 -0.1612 -0.2616  0.0164
    1W        W60224  15.178  16.104   7.780  0.0595 -0.0491  0.0702
    1W        W60225  11.763   9.173   1.739 -0.2827 -0.1087  0.2677
    1W        W60226   5.763  16.283   8.600  0.0934 -0.0562  0.5276
    1W        W60227  27.189  20.780   9.682 -0.0757 -0.0970  0.0511
    1W        W60228  17.636  27.021   3.293  0.1604  0.0463  0.0138
    1W        W60229   1.658  18.261   7.134  0.3897  0.3215  0.0612
    1W        W60230  13.785   1.768   1.422 -0.3084  0.0003  0.2423
    1W        W60231  26.994  18.017   1.805 -0.0996 -0.2143  0.0029
    1W        W60232  12.127   6.421   6.891 -0.1342  0.1119 -0.2764
    1W        W60233  11.786  25.316   3.714  0.0450  0.1609  0.0961
    1W        W60234   0.209  22.312   2.087 -0.0224  0.1039  0.0557
    1W        W60235  17.266  25.294   1.983 -0.0076  0.0378 -0.2800
    1W        W60236  13.619  15.752   0.143  0.1081  0.0478 -0.0887
    1W        W60237  16.683   3.795   1.327  0.0393  0.1634 -0.1039
    1W        W60238   1.183  20.606   8.850 -0.0004 -0.1983  0.1184
    1W        W60239   6.411  26.163   1.256 -0.2144 -0.0212 -0.1806
    1W        W60240   1.443  10.822   8.100  0.0979  0.2885  0.0071
    1W        W60241  21.503  13.500   9.426 -0.1225  0.0265 -0.2558
    1W        W60242  14.692  28.184   2.918 -0.3440 -0.0497  0.2011
    1W        W60243   1.011  24.997   8.133 -0.0560 -0.3856 -0.0515
    1W        W60244   9.699   9.369   2.467  0.0055 -0.1143  0.0505
    1W        W60245  17.108   9.611   2.458  0.1825 -0.1589  0.0618
    1W        W60246   5.241  24.516   7.406 -0.0657  0.4411 -0.0301
    1W        W60247  24.280   3.304   8.558  0.1084  0.0213  0.0155
    1W        W60248  21.463  20.498   0.983 -0.1867 -0.0785  0.1248
    1W        W60249  26.481   1.652   1.458  0.2081 -0.1208 -0.2928
    1W        W60250  15.139  17.823   2.312  0.4442  0.1822 -0.0916
    1W        W60251  11.117   8.189   7.013 -0.0883  0.2767 -0.0944
    1W        W60252   3.799  28.933   2.592  0.1836 -0.1597 -0.0337
    1W        W60253   1.524   7.419   2.391 -0.3834 -0.0354  0.1006
    1W        W60254  17.460  20.395   6.886  0.1497 -0.0763  0.1086
    1W        W60255  17.807  15.529   8.054 -0.1622  0.0822 -0.2056
    1W        W60256  11.452  14.294   1.718  0.0998 -0.1986 -0.0646
    1W        W60257   0.954  19.107   8.915  0.1466  0.1028 -0.0640
    1W        W60258  27.115   3.497   8.473 -0.0963  0.2189 -0.1302
    1W        W60259   8.637  28.196   8.055  0.0076  0.2247 -0.2235
    1W        W60260  18.963   2.187   6.925 -0.1596  0.3550 -0.1233
    1W        W60261   8.193   3.301   7.267  0.2575 -0.1114 -0.0242
    1W        W60262  28.126   2.912   8.844 -0.0649  0.1556 -0.1062
    1W        W60263  23.694  26.183   8.483 -0.2320  0.0149 -0.0059
    1W        W60264  27.598  12.366   0.516  0.2939  0.1713 -0.2403
    1W        W60265   8.171  25.137   6.918 -0.1354 -0.1475  0.5153
    1W        W60266  25.997   4.498   6.912  0.3823  0.0044  0.1467
    1W        W60267  12.000  17.048   7.679 -0.1254  0.0303  0.1171
    1W        W60268  19.704  27.837   8.003  0.0081  0.1302  0.1931
    1W        W60269  17.330  25.093   2.446  0.1646 -0.0163 -0.1129
    1W        W60270  22.850  24.643   1.187  0.3059  0.0410 -0.3340
    1W        W60271  14.617   7.932   0.264 -0.1432  0.1473 -0.3681
    1W        W60272  13.618   0.257   0.850  0.1530 -0.3246 -0.2503
    1W        W60273  16.555  23.095   1.584 -0.0209  0.0107  0.2900
    1W        W60274   2.459  18.210   5.917 -0.0349  0.2273 -0.1691
    1W        W60275   1.258  22.648   7.078 -0.1671 -0.1906  0.3499
    1W        W60276  25.269   8.011   8.987 -0.0082  0.1153  0.0855
    1W        W60277   3.932  23.423   9.120 -0.0249 -0.1330 -0.1144
    1W        W60278  21.604   6.869   0.621  0.0300 -0.1816 -0.1753
    1W        W60279  13.763   8.762   1.301  0.0265  0.0766 -0.0169
    1W        W60280  28.654  23.077   1.587  0.0907 -0.0944 -0.1606
    1W        W60281  27.499   7.318   5.792  0.2726 -0.0509  0.1455
    1W        W60282  14.755   6.517   8.043 -0.0384  0.2166 -0.0750
    1W        W60283   2.674  16.624   6.565  0.0355  0.1991  0.1309
    1W        W60284  15.647  18.247   7.354 -0.2490 -0.0811 -0.0246
    1W        W60285   5.379   2.815   1.026 -0.0626 -0.2025 -0.1332
    1W        W60286  12.327  25.044   7.889  0.3031 -0.2610 -0.0390
    1W        W60287  10.568  10.336   7.909  0.2303 -0.4075 -0.1692
    1W        W60288  18.635   2.106   7.329  0.1282  0.1800  0.0054
    1W        W60289   5.227  25.281   8.927  0.0224  0.0666 -0.1233
    1W        W60290   0.827   3.890   8.713 -0.2728  0.0639  0.1589
    1W        W60291   1.463  22.337   0.624 -0.2373 -0.2471  0.2704
    1W        W60292  17.053  17.291   1.969 -0.0469  0.3303 -0.2506
    1W        W60293   2.190   7.549   8.889 -0.2209 -0.0821  0.1486
    1W        W60294  18.655   0.115   6.875 -0.0075 -0.0393 -0.1161
    1W        W60295  27.621  25.067   0.280 -0.1361 -0.2114 -0.0975
    1W        W60296   4.657  19.364   1.352  0.2909 -0.1764  0.2369
    1W        W60297  21.968  27.238   2.348 -0.2463 -0.1789 -0.1465
    1W        W60298  14.947   8.768   2.101  0.3915  0.2135  0.0780
    1W        W60299  26.607  22.733   9.511 -0.2390 -0.1108  0.1681
    1W        W60300  12.313   4.461   8.048 -0.0220 -0.0752 -0.1138
    1W        W60301  15.934   6.705   3.519  0.0389 -0.1711  0.3562
    1W        W60302  15.755   1.130   2.300  0.0800  0.0516  0.3638
    1W        W60303   9.802   5.336   3.741  0.0347  0.1860  0.2924
    1W        W60304   4.453   3.768   1.051  0.0778 -0.0399 -0.1621
    1W        W60305  13.249  20.222   8.396  0.1523 -0.0385  0.0945
    1W        W60306  13.348  15.820   7.907  0.3155 -0.1697 -0.0191
    1W        W60307  10.155  29.073   8.012 -0.0132  0.1241 -0.0355
    1W        W60308  24.430  25.494   8.579 -0.1707  0.0263  0.1182
    1W        W60309  28.256  15.902   6.734 -0.2479 -0.0914  0.2314
    1W        W60310  19.627   7.346   2.153 -0.1597 -0.0024  0.0315
    1W        W60311   2.478  12.860   2.341 -0.0398  0.0882  0.0612
    1W        W60312  13.555   3.257   3.411 -0.0239  0.0531 -0.1362
    1W        W60313  13.177   8.092   2.693 -0.3048 -0.4146  0.0558
    1W        W60314  27.671  25.807   1.970  0.1918 -0.2965  0.1381
    1W        W60315   7.776  27.445   3.904  0.0800  0.1842 -0.2255
    1W        W60316  29.210   9.343   8.967  0.0839  0.1387 -0.0161
    1W        W60317   0.387   0.234   7.500  0.1730  0.0089 -0.4336
    1W        W60318  28.870  13.448   2.523 -0.0769 -0.1361 -0.1195
    1W        W60319  27.309   4.571   7.145 -0.3213  0.2905  0.1542
    1W        W60320  28.410   0.765   0.748 -0.1953  0.1006  0.0402
    1W        W60321  27.204  14.701   0.154 -0.2238 -0.0100  0.3061
    1W        W60322  16.991  13.443   2.617 -0.1002  0.0593 -0.0275
    1W        W60323  20.947  25.319   0.629  0.1269  0.3649 -0.0918
    1W        W60324   1.976  22.920   0.206 -0.0749  0.0907 -0.1733
    1W        W60325  26.714   4.656   9.051 -0.0133 -0.4389  0.1253
    1W        W60326   6.835   6.757   7.697  0.2881 -0.0047  0.1415
    1W        W60327   2.288  21.932   0.804  0.0229  0.2399  0.1469
    1W        W60328   5.613  21.097   6.672  0.0318  0.0295  0.2500
    1W        W60329   4.629  28.029   1.870 -0.1382  0.0874  0.2770
    1W        W60330  29.274   4.644   2.704  0.0158 -0.0707  0.0557
    1W        W60331   6.014   4.420   2.160  0.3192  0.1588  0.1223
    1W        W60332  19.571  16.805   8.286  0.1235 -0.2113 -0.0077
    1W        W60333   2.611  15.922   0.134 -0.0104  0.0625 -0.3946
    1W        W60334   0.142  15.930   0.565  0.0374 -0.1357  0.0574
    1W        W60335  23.142   7.393   2.332 -0.3343  0.0525 -0.0051
    1W        W60336  10.080   6.730   1.228 -0.0170 -0.0570  0.1753
    1W        W60337  17.539   4.187   1.511 -0.3380 -0.0542  0.1082
    1W        W60338  12.763  11.252   9.133  0.3188 -0.0351  0.3365
    1W        W60339  14.729  17.826   7.051 -0.2243  0.0327  0.2586
    1W        W60340   9.880  23.051   0.969 -0.3224  0.4643 -0.2089
    1W        W60341   0.163  27.979   7.098  0.0335  0.1565  0.0153
    1W        W60342   1.244  12.746   1.527 -0.0757  0.4893 -0.0054
    1W        W60343  24.513  24.431   6.919  0.0497  0.1497 -0.2222
    1W        W60344  19.629  11.841   0.055  0.0153 -0.1054  0.2245
    1W        W60345  19.015  23.248   1.323  0.3800  0.1739  0.0754
    1W        W60346  20.068  20.923   7.665 -0.1574 -0.0370  0.2025
    1W        W60347   9.222   0.560   0.389 -0.0585  0.2432  0.2664
    1W        W60348  27.667  11.688   7.317  0.0755 -0.2526  0.1323
    1W        W60349   4.409  22.150   8.636  0.1846 -0.0292  0.0986
    1W        W60350   5.533  29.177   9.653  0.3005 -0.2523  0.1240
    1W        W60351  28.384   5.377   1.801  0.1203 -0.2225  0.3010
    1W        W60352   5.707  18.586   8.080 -0.2040 -0.1740 -0.0954
    1W        W60353  18.200  12.173   2.423  0.0007  0.0307 -0.0263
    1W        W60354   6.296  28.882   0.414  0.0863  0.1233 -0.0026
    1W        W60355  20.532   4.790   6.927 -0.2607 -0.1443 -0.0736
    1W        W60356   7.703  14.465   8.829 -0.2040  0.0623 -0.1459
    1W        W60357   1.767   1.866   0.743  0.2406 -0.1483  0.0389
    1W        W60358  10.815  24.565   5.940 -0.0318  0.0170  0.4015
    1W        W60359   4.578   7.808   8.384  0.1042 -0.0973 -0.1146
    1W        W60360  21.306  23.078   2.579 -0.0692 -0.2610  0.1655
    1W        W60361  24.173  14.971   6.133 -0.1705  0.1075 -0.1801
    1W        W60362  28.133  18.654   7.974  0.0899  0.1032  0.0447
    1W        W60363  26.857  10.863   9.000 -0.0008  0.0130  0.1242
    1W        W60364  20.821   2.130   2.506  0.1508 -0.4368  0.1924
    1W        W60365   4.378  21.200   6.591 -0.1968 -0.1474  0.1623
    1W        W60366  29.235   6.298   0.259 -0.0889 -0.1233  0.0348
    1W        W60367  28.482  28.318   1.865  0.3337 -0.1059  0.1003
    1W        W60368  18.604   0.056   0.945  0.0797 -0.1126  0.3011
    1W        W60369  26.066  11.835   7.602  0.1415  0.0260 -0.1527
    1W        W60370  20.803  27.828   2.227  0.0975 -0.0902  0.0297
    1W        W60371  11.247   3.124   8.068  0.1668  0.0014 -0.0148
    1W        W60372  26.965  28.447   6.322  0.1713 -0.1493  0.2671
    1W        W60373   0.452   6.954   0.226 -0.0695 -0.2765  0.3452
    1W        W60374  27.161  15.981   0.668 -0.2564  0.1569  0.0705
    1W        W60375  11.133  14.052   0.256  0.2069 -0.1183 -0.0541
    1W        W60376  11.490  28.616   7.284 -0.2637 -0.1681 -0.0712
    1W        W60377  27.318   5.620   6.331  0.1765  0.1644  0.0446
    1W        W60378  22.995   2.160   7.812 -0.0873  0.1486 -0.2295
    1W        W60379   6.690  24.115   9.535  0.1670  0.0259  0.1391
    1W        W60380   6.327  21.429   7.195  0.0299 -0.1312  0.3146
    1W        W60381  12.456  29.274   8.006 -0.0952 -0.0336 -0.3295
    1W        W60382  17.828   7.395   0.395  0.3289 -0.2513  0.0829
    1W        W60383   1.801  11.739   8.494 -0.2879 -0.0640  0.2798
    1W        W60384  15.251  20.904   9.408  0.1706  0.1009 -0.0018
    1W        W60385   3.356  27.857   2.563 -0.0058  0.1920  0.0376
    1W        W60386  28.530  24.572   1.160  0.1368 -0.0717 -0.2597
    1W        W60387   1.320  11.343   0.625  0.2836  0.0750 -0.0394
    1W        W60388  24.961   3.334   6.298  0.2082 -0.0002 -0.0582
    1W        W60389  22.482   6.215   7.877  0.3188  0.2514  0.0806
    1W        W60390  19.027  16.060   6.537  0.0344  0.1697  0.1126
    1W        W60391   8.243  28.475   2.493 -0.0992 -0.0592  0.0855
    1W        W60392  16.062  22.352   8.699 -0.0449 -0.0950 -0.3351
    1W        W60393   9.575  28.493   1.289 -0.2065 -0.0164 -0.0778
    1W        W60394   9.406  25.355   1.083  0.1550  0.2775  0.2326
    1W        W60395  13.333  20.450   0.640  0.0948 -0.1087  0.0242
    1W        W60396  23.895   3.137   7.810  0.3916  0.0577  0.0733
    1W        W60397  10.467  10.471   9.211  0.2131 -0.2416  0.0360
    1W        W60398  21.082  21.747   1.049 -0.2324 -0.0287 -0.1647
    1W        W60399  20.368   4.222   0.093 -0.0113 -0.1906  0.0994
    1W        W60400   5.982   0.606   7.850 -0.2009 -0.0979  0.1789
    1W        W60401   9.232  22.025   7.841 -0.2314  0.1908 -0.1106
    1W        W60402   4.231   0.443   1.094  0.0593  0.1660  0.1938
    1W        W60403   2.727  18.545   1.937  0.4603  0.1748 -0.1308
    1W        W60404  25.027  11.772   1.221  0.0155 -0.1709 -0.2132
    1W        W60405  11.816  17.862   2.476 -0.0411 -0.1677  0.2388
    1W        W60406   2.902  11.411   1.441  0.0751 -0.1139  0.0697
    1W        W60407   7.466  22.009   0.841  0.4366  0.1404  0.1244
    1W        W60408  22.719  16.879   0.073  0.0053 -0.3029 -0.0242
    1W        W60409  14.935   7.975   8.244  0.1563  0.0847 -0.2777
    1W        W60410   1.824  26.335   0.143 -0.0686  0.1102  0.2391
    1W        W60411  12.721  16.608   0.390  0.0367 -0.1808  0.0628
    1W        W60412  19.740  22.903   7.765 -0.1346  0.3755 -0.2413
    1W        W60413  27.117   2.380   2.534  0.3309 -0.1033  0.0424
    1W        W60414   5.037  15.184   1.192 -0.1093  0.2158 -0.0372
    1W        W60415   8.544  10.053   1.529  0.0450  0.1694 -0.1617
    1W        W60416   1.314   3.677   2.128 -0.2470 -0.0443 -0.1144
    1W        W60417  25.351  18.410   1.948  0.0839 -0.0711 -0.0501
    1W        W60418  26.768  12.858   9.075 -0.0820  0.1705 -0.2511
    1W        W60419   7.183  22.434   1.775  0.1953  0.1711 -0.0991
    1W        W60420   3.057  27.243   9.241  0.1171 -0.0979 -0.0031
    1W        W60421  17.002   1.919   3.054 -0.1672  0.0262  0.0406
    1W        W60422   2.330  22.105   6.675 -0.0242  0.0043 -0.0793
    1W        W60423  27.833  17.278   0.158 -0.0461  0.1421  0.2247
    1W        W60424  28.066   8.997   6.537 -0.3027 -0.1138  0.3449
    1W        W60425  10.834   8.766   3.082  0.3112 -0.0572  0.1518
    1W        W60426  20.264  12.777   8.867  0.0086 -0.2641  0.1513
    1W        W60427  11.580   0.067   3.770  0.0186 -0.0749  0.3543
    1W        W60428  15.896  21.628   7.430  0.2238 -0.0293  0.1431
    1W        W60429   0.420  27.242   9.269  0.0802  0.2499  0.0910
    1W        W60430  13.627   5.333   3.442 -0.0489  0.0536  0.1715
    1W        W60431  11.248  24.265   8.214 -0.0043 -0.3252  0.1672
    1W        W60432   6.210  12.019   2.441  0.1563 -0.1858  0.1452
    1W        W60433  27.841  28.861   8.171 -0.0720 -0.1179  0.0759
    1W        W60434  27.563   7.400   0.701 -0.1674  0.0931 -0.0838
    1W        W60435   4.207  20.143   0.776 -0.1328  0.2642 -0.1306
    1W        W60436  24.924  17.931   1.177 -0.1077  0.1253  0.0301
    1W        W60437   7.052  24.393   5.723 -0.1326 -0.1322  0.0930
    1W        W60438   2.889  17.111   7.872  0.0334 -0.0672  0.0228
    1W        W60439   7.356  24.495   6.889 -0.1809  0.0237  0.1130
    1W        W60440   6.369   3.910   0.133  0.2843 -0.0551  0.1563
    1W        W60441  25.525   0.457   1.512  0.0050  0.0909  0.1248
    1W        W60442  28.285  11.704   7.206  0.1504  0.2914  0.3473
    1W        W60443  21.849  27.967   2.481  0.1354  0.1133  0.1496
    1W        W60444   2.725  25.065   7.497 -0.1343  0.0927 -0.0619
    1W        W60445  22.306  18.539   1.723 -0.1096  0.1181  0.0160
    1W        W60446  12.031  14.639   0.995  0.0277 -0.0451  0.1840
    1W        W60447   9.914  26.023   2.234 -0.1645  0.1158 -0.0093
    1W        W60448  23.669  11.909   9.137 -0.2283  0.1951 -0.2669
    1W        W60449   3.910  22.982   7.769 -0.0424  0.2337 -0.0865
    1W        W60450  22.230  15.803   1.327 -0.1122 -0.0243 -0.0904
    1W        W60451  24.234   3.465   2.662  0.0998 -0.4240 -0.0147
    1W        W60452  19.510  16.961   1.965 -0.0181 -0.1621 -0.1722
    1W        W60453  21.154  26.352   2.389 -0.3999  0.0856 -0.3263
    1W        W60454  21.087  21.791   7.092 -0.1580 -0.1245  0.1249
    1W        W60455  19.546   0.359   1.275  0.4314 -0.0480 -0.4143
    1W        W60456  10.498   0.710   0.741 -0.0432  0.0809  0.0482
    1W        W60457  23.969  14.023   9.239 -0.0016 -0.0966  0.0114
    1W        W60458   5.985  10.537   2.536 -0.3265 -0.3160 -0.2717
    1W        W60459   5.125   7.973   8.372  0.2970  0.0938 -0.1432
    1W        W60460   8.807   1.461   8.850  0.3210  0.0857  0.2018
    1W        W60461   2.114   2.656   7.270 -0.2487 -0.3147 -0.0401
    1W        W60462  21.688  17.892   2.503  0.0733  0.1186  0.0474
    1W        W60463  19.220  27.797   8.323  0.0416 -0.3550 -0.0452
    1W        W60464   4.410  14.490   0.529 -0.0502  0.1100  0.0810
    1W        W60465  19.280   1.028   8.962  0.1241  0.0636  0.4001
    1W        W60466  10.719  23.302   0.373  0.0373  0.0630 -0.3248
    1W        W60467   9.604  14.156   1.434 -0.3504  0.3061  0.1035
    1W        W60468  14.894   2.945   1.643  0.6404 -0.0307  0.1108
    1W        W60469   7.627  20.215   7.526 -0.5877 -0.0776  0.0667
    1W        W60470   1.622  23.112   6.652 -0.1037 -0.1660 -0.0804
    1W        W60471  26.453  12.341   5.806 -0.0612 -0.3137 -0.3465
    1W        W60472  21.069  13.301   9.269  0.3894  0.1731 -0.1158
    1W        W60473  29.161   9.676   2.014  0.0339  0.1980  0.0742
    1W        W60474  28.872  26.789   1.451  0.3205  0.0843  0.0820
    1W        W60475   9.849  17.090   1.890 -0.1753  0.0447 -0.2704
    1W        W60476  14.530   3.293   0.176  0.0197 -0.0085  0.0878
    1W        W60477  21.664  23.732   0.545 -0.1641 -0.0385  0.2746
    1W        W60478  15.136  12.474   8.046  0.0180 -0.0704  0.0939
    1W        W60479  10.663  21.273   1.487 -0.1409 -0.0497 -0.1516
    1W        W60480   2.024  16.462   8.932  0.0426  0.0700 -0.2367
    1W        W60481  21.561   7.586   1.198 -0.1083  0.0265  0.1851
    1W        W60482   7.419  16.002   6.394 -0.0916 -0.0544  0.2292
    1W        W60483   6.868   5.624   2.514  0.1424  0.1769 -0.0788
    1W        W60484  24.142  16.559   0.159 -0.1995 -0.0303 -0.2133
    1W        W60485   3.655  26.903   7.496 -0.1515 -0.1071  0.1497
    1W        W60486   6.138  18.106   0.424  0.2678  0.1667  0.2457
    1W        W60487   9.570   3.319   7.368  0.1611 -0.1876  0.1991
    1W        W60488  14.977  24.397   0.630  0.0975  0.0264 -0.3173
    1W        W60489   0.952  23.243   2.804 -0.3547 -0.1720  0.4237
    1W        W60490  23.885  11.101   0.848 -0.1576 -0.2309 -0.1009
    1W        W60491   8.742   7.953   1.750  0.2767 -0.1684 -0.0085
    1W        W60492   5.684  27.178   0.905  0.1096  0.1087  0.0579
    1W        W60493  24.770   6.758   0.195 -0.1418 -0.0142  0.3158
    1W        W60494   1.637  27.704   7.496 -0.2168 -0.1813 -0.0540
    1W        W60495  24.681  28.606   0.407 -0.1440 -0.1257  0.3501
    1W        W60496  17.969  15.103   0.233  0.0333  0.3730  0.0340
    1W        W60497   2.860  23.187   6.798  0.1488 -0.2848  0.3620
    1W        W60498  13.437  18.480   1.281  0.0426  0.2281  0.0738
    1W        W60499   4.363  18.135   5.554  0.0321 -0.2940  0.0489
    1W        W60500   8.839  25.610   0.207  0.0709 -0.0918 -0.1167
    1W        W60501  14.069  21.435   1.189  0.0132  0.2800  0.1172
    1W        W60502  16.860  17.163   0.126 -0.0241  0.1836 -0.0389
    1W        W60503  27.871  20.809   8.648  0.1035 -0.1120 -0.0578
    1W        W60504  12.312   5.239   8.411 -0.2125  0.1232 -0.1853
    1W        W60505  15.864   1.876   1.432  0.0014  0.0503  0.1444
    1W        W60506   7.210  27.719   2.798  0.0183 -0.0319 -0.0080
    1W        W60507  27.263  15.772   0.155  0.2147  0.0074  0.0891
    1W        W60508  18.816  13.468   8.619  0.2184  0.0204 -0.0472
    1W        W60509   6.700  11.751   2.195 -0.0340  0.3651 -0.0059
    1W        W60510  21.806   6.830   8.918 -0.0019  0.1230 -0.1473
    1W        W60511   8.409   5.837   0.253 -0.1731 -0.0257  0.1859
    1W        W60512   6.003  28.590   0.073 -0.0495  0.0937 -0.0425
    1W        W60513   4.316  18.716   6.263  0.1775  0.2340  0.0603
    1W        W60514   4.832  25.550   1.831  0.4750  0.0177 -0.2237
    1W        W60515  11.506  16.687   1.901  0.0476  0.0050  0.2908
    1W        W60516  21.694  10.745   6.927 -0.2113 -0.0078  0.1868
    1W        W60517   7.320  20.967   6.223  0.0868  0.2152  0.0962
    1W        W60518  24.391   3.434   8.999 -0.1636  0.2944 -0.0081
    1W        W60519   2.450  12.380   6.670  0.0736  0.1294  0.0904
    1W        W60520  10.456   1.319   3.616 -0.0307  0.1493 -0.0395
    1W        W60521   5.363  16.520   0.570 -0.1947 -0.2366 -0.2559
    1W        W60522  26.568  16.963   8.451  0.1252 -0.1436 -0.0437
    1W        W60523  10.336   1.516   9.003 -0.3606 -0.1288  0.0325
    1W        W60524  25.784  18.710   2.118  0.0416 -0.3517 -0.0133
    1W        W60525  12.839  26.732   9.477 -0.1889  0.0124 -0.2237
    1W        W60526   6.046  16.467   7.217 -0.0412  0.3577  0.0668
    1W        W60527  17.087  27.069   0.640 -0.3154 -0.0990  0.1292
    1W        W60528   5.504  27.642   1.797  0.1443 -0.0400  0.0450
    1W        W60529  24.334   5.061   7.719  0.2427  0.0903 -0.0214
    1W        W60530  23.846   0.794   2.334 -0.0661 -0.0390 -0.0126
    1W        W60531  24.245   6.519   7.938  0.2214 -0.3505  0.2008
    1W        W60532   5.857   6.965   2.146  0.0643 -0.2812 -0.0382
    1W        W60533   0.548  15.531   7.184 -0.0630  0.1778  0.0222
    1W        W60534  16.957   1.097   1.842 -0.0776  0.0488 -0.0148
    1W        W60535  23.576  29.097   0.752  0.1414 -0.1153 -0.0251
    1W        W60536  22.031  19.840   3.980 -0.0940 -0.0054 -0.0770
    1W        W60537   2.705   6.936   2.083  0.2502 -0.0097 -0.3504
    1W        W60538  28.940   6.124   2.958 -0.1388  0.0705  0.3573
    1W        W60539  24.365   5.119   2.560 -0.1979  0.1395 -0.3034
    1W        W60540  27.875  19.360   2.383  0.0285  0.0567 -0.1412
    1W        W60541  12.939  22.098   6.454  0.0046 -0.0361  0.2566
    1W        W60542  22.794  13.802   1.125  0.1476 -0.1854  0.0247
    1W        W60543  13.284  17.287   6.971  0.2050  0.1049 -0.0068
    1W        W60544  28.540  12.096   8.809  0.3601 -0.1728 -0.3385
    1W        W60545   5.172  26.328   8.709 -0.1326 -0.0759  0.2459
    1W        W60546  23.230  15.037   1.577  0.0307  0.2448 -0.0517
    1W        W60547  22.116  27.524   7.602  0.2486 -0.0778 -0.0421
    1W        W60548   3.908  26.269   1.594  0.0660  0.1897 -0.0086
    1W        W60549  16.103   6.358   9.431  0.1987 -0.0753 -0.0243
    1W        W60550  13.200   6.201   8.060 -0.0816 -0.1340  0.1291
    1W        W60551  12.864   3.888   1.962  0.3008  0.3257 -0.2050
    1W        W60552  18.564   3.721   8.786  0.1492 -0.1258  0.1035
    1W        W60553  27.369   2.711   9.339 -0.1226  0.4842  0.4177
    1W        W60554  13.763  12.161   1.323 -0.1974  0.3443  0.0960
    1W        W60555  16.078  25.403   2.815 -0.1060  0.0442 -0.1473
    1W        W60556   0.764  12.317   2.578  0.2215  0.1104 -0.5201
    1W        W60557  19.875   9.080   0.871 -0.1213 -0.0463 -0.0811
    1W        W60558   6.562   7.842   1.360 -0.0712  0.1414  0.0249
    1W        W60559  16.663  12.937   8.305 -0.4452 -0.3166 -0.2060
    1W        W60560  25.893   5.037   7.091 -0.2016  0.1788  0.2945
    1W        W60561  13.206  28.002   0.127  0.1016 -0.2142 -0.2112
    1W        W60562  11.795   8.056   9.509  0.2234 -0.1392 -0.1360
    1W        W60563  26.329  25.562   7.807  0.0387 -0.1251 -0.1487
    1W        W60564   1.141  18.578   6.304 -0.1835 -0.0110 -0.0276
    1W        W60565  25.109   0.156   9.128  0.0844 -0.0494 -0.1073
    1W        W60566  11.799  28.264   2.686  0.3431 -0.0313  0.1453
    1W        W60567   2.636   1.153   1.806  0.1759  0.0530  0.1849
    1W        W60568  19.105   6.246   8.223 -0.1496  0.0293 -0.0263
    1W        W60569   9.789  24.935   7.773 -0.1688 -0.0629  0.0370
    1W        W60570   3.133  14.448   0.016  0.3198  0.1397 -0.1005
    1W        W60571  26.998   2.071   0.436  0.0957 -0.1598 -0.3897
    1W        W60572  21.822   5.737   9.607 -0.5251 -0.1814 -0.2697
    1W        W60573   3.826   1.989   0.608  0.3562 -0.0493 -0.0196
    1W        W60574  13.411  16.151   8.303  0.1825  0.0087 -0.0063
    1W        W60575   5.867  19.586   1.731 -0.0014  0.2980  0.1954
    1W        W60576   9.708  18.753   2.585 -0.1861  0.0629  0.0759
    1W        W60577  14.159  17.115   9.055 -0.1002 -0.1216  0.3796
    1W        W60578   8.609  29.032   2.662 -0.0720 -0.0378 -0.1760
    1W        W60579   0.063   9.898   2.473  0.3202  0.2450  0.0402
    1W        W60580   5.914   9.010   0.574 -0.1055  0.2086  0.0463
    1W        W60581  27.484   1.225   9.054  0.0729  0.0335  0.0100
    1W        W60582   6.936  25.662   0.856  0.0840  0.0211  0.1965
    1W        W60583  19.953   2.204   0.846  0.0314  0.1239 -0.1074
    1W        W60584  23.303  22.048   3.813  0.1157  0.3251 -0.0828
    1W        W60585  24.999  16.763   9.607 -0.0526 -0.2204 -0.1670
    1W        W60586   5.405  22.462   0.523  0.1342  0.0118 -0.0733
    1W        W60587  26.085  10.167   6.992 -0.2916  0.1393  0.1036
    1W        W60588  25.053   3.927   8.780  0.1871 -0.0760 -0.5367
    1W        W60589  27.478  25.909   0.614 -0.0921  0.0969 -0.1797
    1W        W60590   9.886  22.050   1.497 -0.3073 -0.0553  0.2117
    1W        W60591   0.704   4.823   0.741 -0.2360 -0.0790 -0.2444
    1W        W60592   0.529  22.220   2.414  0.2533 -0.1223 -0.0630
    1W        W60593   7.224  24.220   1.265 -0.0598  0.1652  0.4116
    1W        W60594   5.627  13.908   6.865  0.0657  0.1959  0.0040
    1W        W60595  14.512   0.697   4.275  0.0145  0.3197  0.1762
    1W        W60596   4.424   1.435   6.385  0.1480 -0.2448 -0.1146
    1W        W60597  29.294   2.456   1.360  0.2033  0.1912 -0.5134
    1W        W60598   0.376   4.053   8.396  0.0262  0.0865  0.3207
    1W        W60599  12.145  22.545   2.566 -0.3868  0.1028  0.1854
    1W        W60600   0.369  17.216   7.118 -0.1728  0.0930 -0.0185
    1W        W60601  24.460  20.166   2.093 -0.0478  0.2607  0.1129
    1W        W60602   6.226  22.986   1.384  0.3712  0.2898 -0.0753
    1W        W60603  19.172  11.290   8.638 -0.1632  0.2355 -0.0725
    1W        W60604  25.418   1.330   2.816 -0.1307 -0.2604 -0.0551
    1W        W60605  13.008  28.608   1.713 -0.1175 -0.2050 -0.1878
    1W        W60606  21.198  23.292   2.124 -0.0558  0.1798 -0.2166
    1W        W60607  10.391   8.562   1.227 -0.0572  0.0715  0.2044
    1W        W60608  18.815   8.572   2.021  0.1431  0.1584 -0.1263
    1W        W60609  14.194  24.112   1.033  0.1901 -0.2092  0.0064
    1W        W60610   2.397   3.090   2.917  0.1146 -0.1893  0.0341
    1W        W60611  15.058   7.014   9.405  0.0483 -0.0325 -0.1471
    1W        W60612  21.796  10.435   0.154 -0.0769  0.1197 -0.3905
    1W        W60613  17.535   1.781   2.172  0.0534  0.4069  0.1571
    1W        W60614   6.520  24.413   9.022  0.0486  0.3886  0.1080
    1W        W60615  19.598  20.989   7.855  0.0076  0.0928  0.1866
    1W        W60616  25.180   8.172   7.190 -0.0650 -0.0252 -0.2576
    1W        W60617   4.911  10.740   7.033 -0.1730  0.2094  0.0776
    1W        W60618   3.372   1.246   3.031 -0.2155 -0.1827  0.3257
    1W        W60619  14.684  21.932   8.167  0.0248 -0.0815 -0.0492
    1W        W60620  13.555  24.527   0.851  0.0105 -0.2639  0.1750
    1W        W60621  11.594  12.604   8.736 -0.0163 -0.1069 -0.0446
    1W        W60622  29.341  13.046   9.245  0.0914 -0.2891  0.1375
    1W        W60623   4.311  17.619   8.268  0.0528  0.2480 -0.1530
    1W        W60624  18.924   6.693   8.413  0.2029  0.1023  0.1624
    1W        W60625   6.417   2.878   7.532  0.2184 -0.0278 -0.0768
    1W        W60626  15.325  23.692   1.900  0.0140 -0.2661  0.0961
    1W        W60627  26.758   4.359   7.118 -0.1251  0.0052 -0.1229
    1W        W60628  24.512  21.786   1.796 -0.0239 -0.1645 -0.1118
    1W        W60629  27.580  21.300   1.849  0.2467 -0.1748 -0.1643
    1W        W60630   0.621  10.410   6.347 -0.0856  0.1452  0.0345
    1W        W60631  15.317  17.670   7.187  0.0266 -0.2082  0.1715
    1W        W60632  27.800  20.549   8.244  0.3903  0.0825 -0.1889
    1W        W60633  11.353  27.310   8.598 -0.4449 -0.0470  0.1861
    1W        W60634   2.762   7.539   2.648 -0.3587  0.1628 -0.2081
    1W        W60635  16.643   6.648   1.295 -0.0318  0.1930 -0.0095
    1W        W60636   8.591  12.490   7.268 -0.0271 -0.0644  0.0634
    1W        W60637  24.043  12.239   0.033  0.0144 -0.3184 -0.1847
    1W        W60638  15.946  13.044   2.107  0.1291  0.1881 -0.0626
    1W        W60639   2.737   0.986   7.718 -0.1014 -0.2201 -0.0448
    1W        W60640  19.955  23.591   9.243  0.0191  0.1120  0.0953
    1W        W60641  17.069   2.466   0.209  0.3675 -0.1972 -0.2460
    1W        W60642   4.232  10.379   2.652  0.0644 -0.0102  0.0634
    1W        W60643   8.171   2.821   2.624 -0.1705 -0.0746 -0.2674
    1W        W60644  24.366  13.987   6.512 -0.2864 -0.0277 -0.1813
    1W        W60645   5.703  25.988   1.723 -0.1426  0.1281 -0.0224
    1W        W60646   0.214  10.131   9.489 -0.1260  0.2648  0.2494
    1W        W60647   2.601  10.160   1.229  0.1791  0.0218 -0.4106
    1W        W60648  27.479   2.430   1.336  0.2463 -0.2085  0.1586
    1W        W60649  22.773   5.585   2.612  0.2318 -0.2368  0.1813
    1W        W60650   7.808  19.040   9.097  0.1244  0.2116 -0.0903
    1W        W60651   8.079   2.154   7.353 -0.1546 -0.0229  0.1105
    1W        W60652  25.452   8.245   7.635  0.0257  0.1952  0.0472
    1W        W60653  22.076   0.414   8.653  0.0926  0.1619  0.1518
    1W        W60654   2.757  22.606   7.474 -0.0067 -0.3064 -0.0523
    1W        W60655   2.619   5.723   7.469  0.2734  0.0085 -0.3092
    1W        W60656  26.511   4.335   6.688 -0.0166  0.4234 -0.1303
    1W        W60657  17.282   2.022   1.777  0.0669 -0.2182  0.1600
    1W        W60658   3.925  12.605   7.059 -0.0232 -0.2118 -0.0320
    1W        W60659   1.762  13.571   9.357  0.0396 -0.0452 -0.2680
    1W        W60660   1.973  20.661   9.440 -0.2415  0.0093  0.0799
    1W        W60661  21.540  20.565   7.790 -0.0165 -0.1140 -0.2368
    1W        W60662   0.646  26.005   1.418 -0.0276 -0.1514 -0.0988
    1W        W60663  24.787  21.366   1.906 -0.1942 -0.1958  0.0058
    1W        W60664   5.864   3.600   1.892  0.0990  0.0503  0.0666
    1W        W60665  20.698  12.203   0.502 -0.0265 -0.0096  0.0895
    1W        W60666  15.720  15.528   8.942 -0.2486 -0.0992  0.0345
    1W        W60667   0.178  25.831   6.833 -0.1748  0.0415 -0.4736
    1W        W60668   7.467   7.786   8.522 -0.3529  0.1003  0.0190
    1W        W60669   9.501   3.705   1.093  0.2544 -0.2140 -0.3061
    1W        W60670   5.218  12.090   7.652  0.0302 -0.2744 -0.1366
    1W        W60671  14.864  22.492   2.527 -0.0303 -0.2364 -0.0270
    1W        W60672  10.989  21.615   7.713 -0.0519 -0.0667  0.0126
    1W        W60673   1.995   0.473   3.008  0.1194 -0.1084  0.1294
    1W        W60674  21.689  20.712   2.091 -0.0172 -0.1071 -0.2488
    1W        W60675   0.201  21.047   6.902 -0.1859 -0.0134 -0.2276
    1W        W60676   8.975   1.751   1.995 -0.0137  0.2510  0.0387
    1W        W60677  18.068  13.819   7.669  0.0683  0.0788  0.0039
    1W        W60678   2.396  23.606   0.617  0.0450 -0.2530 -0.3648
    1W        W60679   9.878  22.120   9.271  0.1311  0.2591  0.0012
    1W        W60680   9.539  21.500   1.745  0.0202 -0.1321 -0.1904
    1W        W60681  20.193  24.894   6.448  0.0071 -0.1170 -0.0267
    1W        W60682  21.429  20.914   6.687  0.1300 -0.1163  0.3789
    1W        W60683   7.255  26.340   2.937  0.0402 -0.1121  0.0823
    1W        W60684   1.881  24.726   1.272  0.5033 -0.1654 -0.2123
    1W        W60685   6.568  28.671   8.966  0.2478  0.1038 -0.2918
    1W        W60686   3.247  28.268   9.117 -0.0194  0.0612 -0.1326
    1W        W60687  21.146  25.488   2.943 -0.2939  0.1808  0.0893
    1W        W60688  26.743   3.220   2.695  0.1484  0.0398 -0.1600
    1W        W60689  28.202  20.612   2.606  0.2750 -0.1890 -0.0621
    1W        W60690  19.926  20.357   0.241  0.2442 -0.2385  0.0270
    1W        W60691   3.433  14.974   9.531 -0.0755  0.0467 -0.1646
    1W        W60692   3.193  22.428   7.385 -0.1687  0.1316 -0.2174
    1W        W60693  19.305  25.860   8.017  0.1056  0.0006  0.3751
    1W        W60694   3.507  28.503   9.551 -0.0209 -0.0644 -0.0747
    1W        W60695   0.436  21.190   9.031 -0.1500 -0.1505 -0.0097
    1W        W60696   3.971  24.505   0.102 -0.2048 -0.0588  0.1191
    1W        W60697  22.280  23.184   2.094 -0.0664 -0.1215 -0.3093
    1W        W60698  14.714  15.111   8.089  0.0467 -0.1179 -0.3167
    1W        W60699  25.809  18.209   5.994  0.1576  0.0376  0.0010
    1W        W60700   1.242   9.295   6.438 -0.3909  0.1510  0.1415
    1W        W60701  11.966   0.323   9.166  0.0263 -0.0058  0.3324
    1W        W60702  13.640   8.096   2.642 -0.1371 -0.1184  0.2314
    1W        W60703  24.551  25.380   7.231 -0.0655  0.0267 -0.1121
    1W        W60704  21.693  21.035   8.536 -0.2046  0.1428  0.0254
    1W        W60705  14.974  21.848   7.656  0.3130  0.0161 -0.0560
    1W        W60706   8.825   4.941   2.455  0.1381  0.1986 -0.0144
    1W        W60707  20.305   5.188   1.121  0.0134  0.1838  0.2730
    1W        W60708  23.042  10.111   9.266 -0.2742  0.2703 -0.0212
    1W        W60709   6.189  25.584   7.890 -0.0871  0.1354 -0.1831
    1W        W60710  18.999  19.277   8.188  0.0326 -0.1581  0.0325
    1W        W60711  12.311   1.465   7.081 -0.1397 -0.1237 -0.0888
    1W        W60712  11.650   2.809   8.032  0.0469  0.0430 -0.0508
    1W        W60713   3.048  16.230   6.101 -0.3724  0.1092  0.1514
    1W        W60714   1.188   2.555   9.332  0.2739 -0.1041 -0.0162
    1W        W60715  26.366  18.987   2.963  0.4272  0.1326 -0.2550
    1W        W60716   8.889   7.816   9.502 -0.1405  0.3143 -0.0931
    1W        W60717  17.333   0.103   8.113  0.0569  0.2074 -0.0632
    1W        W60718  24.815  21.741   1.217  0.2095 -0.2399 -0.1772
    1W        W60719  14.188  26.143   2.107  0.1008  0.0556 -0.1773
    1W        W60720   6.529  13.305   2.607  0.0853  0.1640 -0.1704
    1W        W60721   5.254  28.668   8.246  0.2503 -0.2259 -0.1744
    1W        W60722   8.200  15.066   0.373  0.0407  0.0611 -0.2299
    1W        W60723  13.400  15.267   7.990 -0.0536  0.2357 -0.2662
    1W        W60724   2.749  11.706   8.422  0.0664  0.1477 -0.3005
    1W        W60725  17.930   2.664   8.904  0.3431  0.0965 -0.0998
    1W        W60726  10.780   2.107   7.675 -0.3443 -0.1158 -0.0254
    1W        W60727   1.514  10.705   7.596 -0.0409  0.0816  0.0802
    1W        W60728   0.393  21.873   8.223  0.2308 -0.0070  0.0436
    1W        W60729   9.138  22.269   0.022 -0.4022 -0.2469  0.1769
    1W        W60730   9.555  11.354   8.670  0.1114 -0.0069 -0.0353
    1W        W60731   9.481   0.977   8.248 -0.6055  0.0940  0.4613
    1W        W60732   2.317  13.692   7.691 -0.2511  0.1447  0.0325
    1W        W60733  28.108  19.737   9.405 -0.0874  0.2124  0.0758
    1W        W60734   4.377  24.236   0.043  0.1101  0.0106  0.1085
    1W        W60735  11.579  12.401   9.169  0.1694 -0.1670  0.1499
    1W        W60736  11.139  15.822   9.641 -0.2776 -0.1444  0.1328
    1W        W60737  20.189   4.265   8.902  0.1806  0.0833  0.0323
    1W        W60738  19.446  10.095   7.771 -0.1379 -0.0565  0.1772
    1W        W60739  18.677   8.655   0.193 -0.3598  0.2196  0.2024
    1W        W60740   4.185  13.183   7.690 -0.0738 -0.1037 -0.1601
    1W        W60741  13.638  20.130   0.915  0.2656 -0.0892 -0.2719
    1W        W60742  15.464  17.359   7.597 -0.2660 -0.0314 -0.0380
    1W        W60743  16.306  12.682   1.380 -0.0098 -0.4862 -0.0216
    1W        W60744  23.213   7.673   2.739  0.3875  0.2209  0.1581
    1W        W60745  23.644  21.408   9.448 -0.2788  0.0678  0.0977
    1W        W60746  23.747   3.277   0.586 -0.0769 -0.1511 -0.0477
    1W        W60747   3.912  18.130   1.549 -0.1306  0.1740 -0.2268
    1W        W60748  28.991  11.889   1.062  0.0136  0.3658  0.0268
    1W        W60749  20.154   1.940   6.706  0.1685  0.3621 -0.0051
    1W        W60750   1.817  22.589   1.324  0.2981 -0.2069 -0.1457
    1W        W60751  10.085  16.022   8.866  0.2682  0.1193 -0.1658
    1W        W60752   7.683  15.017   0.631 -0.2447  0.1649 -0.0606
    1W        W60753  23.694   2.782   8.996  0.3737 -0.0551  0.2822
    1W        W60754  15.328  28.792   7.513  0.1604  0.0672 -0.1620
    1W        W60755   7.482   6.444   3.108 -0.0452  0.2128  0.1296
    1W        W60756  10.232  19.019   0.560  0.3979  0.0104  0.3335
    1W        W60757  27.760  14.651   8.541 -0.2293 -0.3407  0.1593
    1W        W60758  28.687   0.254   1.475  0.0432  0.2658 -0.2776
    1W        W60759  15.104   2.716   1.146  0.1932  0.0701 -0.3013
    1W        W60760  16.012   2.479   8.018 -0.0162  0.0649 -0.0272
    1W        W60761  28.806   4.127   1.954  0.0828 -0.0820 -0.2382
    1W        W60762   7.081  22.602   6.905  0.2290  0.1551 -0.0094
    1W        W60763   1.475   8.472   9.192  0.1696  0.0572 -0.0707
    1W        W60764  16.555  26.401   8.456  0.0296 -0.0253 -0.0610
    1W        W60765   9.982   0.722   9.152 -0.0675  0.2014 -0.1707
    1W        W60766  22.117   9.820   1.284  0.1388 -0.0904 -0.0441
    1W        W60767  22.595   1.581   0.179  0.2356 -0.2208 -0.1888
    1W        W60768   7.227   8.496   0.373 -0.0033 -0.4611  0.4156
    1W        W60769  21.634  21.453   8.309 -0.1561 -0.2866 -0.3021
    1W        W60770  23.274  13.493   6.492 -0.0219 -0.0474  0.2377
    1W        W60771   7.135  28.537   2.441 -0.0073  0.1135 -0.2385
    1W        W60772  29.246  15.606   0.194  0.1654 -0.0344  0.0130
    1W        W60773  25.069   0.144   0.547  0.1952 -0.1183 -0.0781
    1W        W60774  23.181  27.875   1.563 -0.0310 -0.2261  0.0017
    1W        W60775   0.956  24.542   7.926  0.2903 -0.5937  0.0116
    1W        W60776   8.928  17.238   6.296 -0.0559 -0.1861 -0.1989
    1W        W60777  15.085  19.406   1.941 -0.0419  0.1505 -0.0499
    1W        W60778   4.714  12.038   1.252 -0.0190  0.0852 -0.1190
    1W        W60779   6.469   6.519   1.557 -0.0094 -0.0260 -0.3834
    1W        W60780   2.089  15.161   8.351  0.2121 -0.2526 -0.4570
    1W        W60781   6.597   4.581   1.433 -0.0582 -0.3204 -0.0662
    1W        W60782  20.111  24.542   9.525  0.0634 -0.1737  0.0662
    1W        W60783   7.439  17.303   6.394 -0.0171 -0.5060  0.0928
    1W        W60784  28.429  22.426   9.264  0.1068  0.1663 -0.1559
    1W        W60785  15.438  13.119   1.747  0.1871  0.3277 -0.0548
    1W        W60786  26.403   5.128   1.922 -0.1431 -0.1694 -0.0484
    1W        W60787  25.396   7.700   6.405 -0.1547  0.0607  0.3313
    1W        W60788   8.096  11.473   8.977 -0.3573  0.0016  0.0745
    1W        W60789  10.537   1.207   2.078  0.0273 -0.0214  0.0359
    1W        W60790   2.401   0.346   8.436  0.0794 -0.0777  0.3121
    1W        W60791   6.634   5.527   8.315  0.1572 -0.2610  0.3420
    1W        W60792  19.052  26.689   8.162  0.0608 -0.0899 -0.0955
    1W        W60793  14.716   9.712   2.559 -0.1067 -0.2281 -0.3027
    1W        W60794   6.675   7.361   1.425 -0.1361  0.1230  0.1121
    1W        W60795   7.697  14.477   8.106  0.1008  0.0832 -0.1189
    1W        W60796  19.110   9.984   8.165  0.2506 -0.0749  0.0137
    1W        W60797  21.837   6.773   1.638  0.0752 -0.0980 -0.0310
    1W        W60798  22.162  18.998   7.203 -0.0199  0.1423  0.0480
    1W        W60799   1.429   4.245   1.960  0.0761  0.2364  0.2135
    1W        W60800  26.883  22.762   2.668 -0.3256  0.1950  0.0881
    1W        W60801   5.911  14.270   8.405  0.3430  0.2015 -0.1940
    1W        W60802  17.521  28.698   2.363  0.1282 -0.0803 -0.0454
    1W        W60803  17.885  21.805   2.596  0.0793  0.0154  0.2831
    1W        W60804  20.821   0.208   8.540  0.0439  0.1526  0.0913
    1W        W60805  24.164  23.038   7.021  0.0153 -0.4317 -0.1119
    1W        W60806  22.428  19.275   7.644 -0.3070  0.1729  0.0383
    1W        W60807  25.924  18.102   6.490 -0.1104 -0.1375  0.4144
    1W        W60808  15.023   1.786   3.160 -0.3094  0.0824  0.1969
    1W        W60809   3.603   3.201   6.155  0.4481 -0.5076  0.0740
    1W        W60810  28.568  15.657   0.746 -0.0303  0.1484  0.0406
    1W        W60811  23.933   0.715   9.137 -0.3193 -0.3641  0.3196
    1W        W60812  29.254  20.923   0.437 -0.0211  0.3955  0.0413
    1W        W60813  25.755  11.431   6.405  0.1089 -0.1641  0.1931
    1W        W60814  11.070  25.622   7.008 -0.0043  0.2221  0.2047
    1W        W60815  27.594  10.449   7.327 -0.0265 -0.0183 -0.0413
    1W        W60816  29.312  24.320   6.530 -0.0066  0.2108 -0.0653
    1W        W60817   3.732  15.057   7.620 -0.3452 -0.0397  0.4831
    1W        W60818   2.021  15.281   7.733 -0.1170 -0.1267  0.1276
    1W        W60819   6.373  18.916   0.196 -0.2115  0.0265 -0.1127
    1W        W60820  24.477  13.416   0.990  0.0487  0.0873 -0.4276
    1W        W60821   1.721  11.468   7.616  0.2645  0.0125 -0.0442
    1W        W60822  22.554   9.201   0.296  0.0791 -0.3285  0.0177
    1W        W60823  18.691   1.815   2.494  0.0779 -0.1041  0.0389
    1W        W60824  18.018  21.634   8.559  0.0919 -0.1410 -0.1015
    1W        W60825  27.434   9.262   7.715 -0.3273 -0.0313  0.0657
    1W        W60826  20.898  11.281   9.164 -0.3836 -0.0808  0.0094
    1W        W60827  11.886  27.047   8.909  0.1088 -0.0276  0.0007
    1W        W60828  20.086   5.004   2.606  0.2981 -0.0064 -0.1680
    1W        W60829   7.625  11.496   7.226 -0.0689 -0.0952 -0.1297
    1W        W60830  13.720  26.591   3.973  0.0862 -0.1311 -0.3390
    1W        W60831  25.913  24.736   7.637 -0.0087  0.0307  0.0140
    1W        W60832   3.428   5.140   1.467 -0.0805  0.4664 -0.0949
    1W        W60833  26.905  14.491   0.594  0.2005  0.0353  0.0800
    1W        W60834  21.267   0.598   2.027 -0.1884 -0.1246  0.3598
    1W        W60835  26.349  13.140   8.934 -0.0717 -0.0332  0.0262
    1W        W60836   0.226  27.525   8.905 -0.3283 -0.2241  0.3441
    1W        W60837   6.967  23.628   7.674 -0.3585 -0.0031  0.0207
    1W        W60838  20.234  18.566   2.520  0.1581  0.1361 -0.2761
    1W        W60839  24.688   0.113   0.246 -0.1664  0.0909 -0.1267
    1W        W60840  11.679   0.406   8.755  0.1885  0.0164 -0.1170
    1W        W60841   9.838  12.886   7.899  0.1237  0.1294  0.0770
    1W        W60842  20.535   3.921   2.002  0.0949 -0.1595  0.1541
    1W        W60843  22.452   5.997   2.218 -0.0654 -0.0128  0.3812
    1W        W60844  11.931  14.338   2.883  0.1290  0.2962 -0.0105
    1W        W60845  25.123  16.222   6.744  0.1125 -0.0017 -0.3327
    1W        W60846  17.810  24.845   1.536  0.0078  0.5191  0.1648
    1W        W60847  23.975  24.209   2.310  0.1035 -0.0412  0.0124
    1W        W60848   3.072  19.735   0.627 -0.1530 -0.2619  0.1158
    1W        W60849  23.215   2.909   7.119 -0.1950 -0.0439 -0.0714
    1W        W60850   6.458  10.385   0.987 -0.1749 -0.2433 -0.0861
    1W        W60851  21.414  22.662   7.887  0.1242  0.1362  0.1918
    1W        W60852   0.714   9.626   7.848  0.0754  0.1518 -0.0917
    1W        W60853  20.517   6.251   1.931 -0.0746 -0.0980  0.0746
    1W        W60854   3.759  19.794   1.931  0.0102 -0.1467 -0.1568
    1W        W60855   3.901  13.628   0.439 -0.0228 -0.0386  0.1488
    1W        W60856  16.374  21.082   1.504  0.1456 -0.0828  0.1390
    1W        W60857   3.896  20.908   3.074 -0.1973  0.1357  0.1558
    1W        W60858  24.967  23.966   2.613  0.2633  0.1139 -0.1826
    1W        W60859  18.881   9.793   0.901 -0.0676 -0.0163  0.0502
    1W        W60860  23.650  23.832   9.153 -0.1712 -0.1206  0.2528
    1W        W60861  20.564  27.704   7.727  0.3626  0.1308  0.0366
    1W        W60862  12.986   8.186   1.802  0.1080 -0.3077 -0.3144
    1W        W60863  16.057   7.382   7.944 -0.2162 -0.0962 -0.0077
    1W        W60864   1.211  10.646   0.822 -0.2584 -0.1674 -0.0766
    1W        W60865  25.061   7.923   0.962 -0.0437 -0.1467 -0.2358
    1W        W60866  28.866  23.169   2.619 -0.0043 -0.1300 -0.0486
    1W        W60867   5.243  21.809   6.295 -0.2546  0.2194 -0.1912
    1W        W60868   8.350  14.148   7.163  0.0295  0.1429  0.0017
    1W        W60869   0.302  28.241   8.302 -0.2401  0.0737  0.0587
    1W        W60870   9.151   2.385   9.594  0.0056 -0.3112 -0.2841
    1W        W60871  12.500   6.853   2.441  0.4686 -0.1640 -0.0836
    1W        W60872  17.070  22.492   9.623  0.1397  0.0412 -0.2410
    1W        W60873   7.645   6.343   0.040 -0.2066 -0.2709  0.1121
    1W        W60874  13.597  10.799   9.599  0.1511 -0.0954  0.2654
    1W        W60875  21.982   8.398   8.914 -0.0357 -0.0042 -0.0763
    1W        W60876  18.408  24.685   9.104 -0.1307 -0.2524  0.1908
    1W        W60877   4.040  26.382   0.993 -0.2942  0.3602  0.1032
    1W        W60878   7.462   2.880   7.692 -0.0910 -0.0753  0.1024
    1W        W60879  19.087  24.011   9.439 -0.0103 -0.2630  0.0264
    1W        W60880  10.113   8.474   9.208  0.1099 -0.2062  0.0400
    1W        W60881   7.225   4.634   0.628 -0.0028  0.0098  0.0885
    1W        W60882  25.501  20.143   0.619  0.1695  0.0359 -0.0109
    1W        W60883   1.689   5.194   6.915 -0.0570  0.2637  0.0722
    1W        W60884  27.010  21.553   1.518 -0.1288 -0.1622  0.0776
    1W        W60885  17.544   9.535   0.830 -0.0592  0.0668 -0.0115
    1W        W60886   2.462  21.415   8.260 -0.1431 -0.1754 -0.0420
    1W        W60887  11.600   7.434   0.633  0.0123 -0.2735  0.4568
    1W        W60888  16.324  11.162   1.311  0.2445 -0.1843  0.0116
    1W        W60889  25.913  13.076   8.660 -0.0826  0.2193  0.1556
    1W        W60890  22.262  18.268   7.780 -0.0408  0.0028 -0.0401
    1W        W60891  14.686  13.481   1.935  0.0509  0.0487 -0.0683
    1W        W60892  26.123   5.232   2.351 -0.1388 -0.2533 -0.4462
    1W        W60893  27.431  28.088   0.187  0.0531 -0.0539  0.1243
    1W        W60894  12.130   0.237   7.549 -0.1898  0.1909 -0.0902
    1W        W60895  13.231  22.308   9.347 -0.3809 -0.1997  0.0047
    1W        W60896  25.356   5.233   7.453  0.1493  0.0444 -0.1624
    1W        W60897  26.200   2.898   0.954 -0.0275 -0.0698  0.2059
    1W        W60898  22.147  25.140   7.215 -0.0514 -0.2124  0.0044
    1W        W60899  16.404  17.385   7.666 -0.0702  0.0733 -0.1713
    1W        W60900   3.498  27.784   0.877 -0.0488 -0.4403  0.0598
    1W        W60901   1.790  27.463   9.220  0.0787  0.0073  0.2289
    1W        W60902  11.767  14.259   1.325 -0.1229  0.0100 -0.1633
    1W        W60903  20.551  18.250   9.427 -0.0441 -0.3980 -0.0938
    1W        W60904  28.369   0.003   7.180  0.1223  0.2685 -0.1486
    1W        W60905  27.768  18.961   7.739 -0.0462  0.2217 -0.1885
    1W        W60906  11.321  22.361   9.016 -0.3220 -0.1617  0.0102
    1W        W60907   7.972  11.509   9.474  0.0910  0.2815 -0.2071
    1W        W60908   1.268   6.594   0.416 -0.0466  0.1442  0.1900
    1W        W60909   0.439   9.714   0.710 -0.0412  0.0431 -0.4507
    1W        W60910  21.428   5.072   1.744  0.2121 -0.0518  0.3133
    1W        W60911  19.745  13.362   1.862 -0.1015  0.1850 -0.1755
    1W        W60912  29.038  16.058   2.413 -0.2196 -0.0367 -0.0183
    1W        W60913  25.997  21.017   7.759 -0.1484  0.2935 -0.0832
    1W        W60914  14.108  29.175   9.510  0.1326  0.0477 -0.0149
    1W        W60915  23.527  24.539   7.893  0.1612 -0.2990 -0.1136
    1W        W60916  10.379  14.613   7.312  0.2612  0.0151 -0.1641
    1W        W60917   1.744  24.068   2.965 -0.1245  0.3382 -0.2992
    1W        W60918  22.142  20.608   0.508  0.0876 -0.1115 -0.0159
    1W        W60919  11.873   2.751   2.876 -0.1356 -0.0580  0.1151
    1W        W60920   6.685  25.152   8.390 -0.1070 -0.2694  0.2391
    1W        W60921  21.132  18.090   2.507 -0.1168  0.2086  0.3644
    1W        W60922  16.833  23.740   8.895 -0.1728 -0.0863 -0.3210
    1W        W60923   1.145  15.067   1.649 -0.1660  0.0313  0.3481
    1W        W60924  26.136   5.809   7.378 -0.3296  0.3709  0.0351
    1W        W60925  16.103   6.671   0.772 -0.1236 -0.1301  0.1969
    1W        W60926   1.029   5.431   8.682  0.0303 -0.3226 -0.3152
    1W        W60927  19.209  17.936   8.307  0.0122  0.1985 -0.0595
    1W        W60928   5.740  20.692   0.740 -0.0079 -0.2667  0.2660
    1W        W60929  19.434  12.411   7.243  0.0375 -0.1927 -0.0150
    1W        W60930   9.483  28.107   0.984  0.2618  0.1049  0.2709
    1W        W60931   5.953  18.860   8.546  0.1724 -0.2266  0.1319
    1W        W60932   6.534  24.525   2.146  0.0822 -0.2883 -0.1500
    1W        W60933  12.951  22.314   2.377 -0.3720  0.2307  0.0694
    1W        W60934  10.016  28.453   2.428 -0.1056  0.1746  0.0496
    1W        W60935  28.922  21.167   1.559 -0.0932  0.0293  0.2757
    1W        W60936   6.388   2.317   7.889 -0.1905  0.0255 -0.2495
    1W        W60937  12.097  26.157   3.668 -0.0871 -0.1346 -0.1471
    1W        W60938  11.288   9.505   1.824  0.1876 -0.0008  0.1725
    1W        W60939   9.429  26.450   0.004  0.0692  0.0141  0.1994
    1W        W60940  23.373  14.565   1.676  0.2978  0.2467  0.0453
    1W        W60941   3.372   6.668   6.521 -0.0293 -0.1472 -0.1376
    1W        W60942  14.428  21.323   8.316  0.4044  0.1501 -0.4458
    1W        W60943   1.910   7.746   0.150 -0.3037  0.0954  0.0963
    1W        W60944   8.763  20.123   6.852 -0.0397  0.3699 -0.1759
    1W        W60945   1.676   9.794   7.085  0.1064  0.1484 -0.0031
    1W        W60946  13.096   5.781   0.687  0.0567 -0.2205 -0.1038
    1W        W60947   4.624  26.414   7.810 -0.1578 -0.1541 -0.0316
    1W        W60948  24.641  27.928   8.512  0.3790 -0.2526 -0.0859
    1W        W60949  21.937  27.362   1.239  0.0544  0.1847  0.0701
    1W        W60950  19.804  23.552   1.681  0.0908 -0.1323 -0.0422
    1W        W60951  26.085  25.727   7.369  0.2353 -0.0966 -0.0403
    1W        W60952  13.187  22.754   7.079 -0.0103 -0.1267  0.0294
    1W        W60953  17.258  22.258   8.780 -0.0248  0.0602 -0.1086
    1W        W60954  29.077  23.981   7.949 -0.2655  0.2466  0.1540
    1W        W60955  23.937   9.471   0.002  0.2283  0.5216 -0.0091
    1W        W60956  18.266   1.790   2.075 -0.5197  0.0192 -0.1973
    1W        W60957  12.817  21.940   1.902 -0.0567  0.0411 -0.1793
    1W        W60958  18.190  19.066   8.227  0.2039 -0.0703  0.0708
    1W        W60959   7.227   9.491   0.409  0.1974 -0.0101  0.3291
    1W        W60960   7.777  20.942   8.154 -0.0378 -0.0483  0.1652
    1W        W60961  24.780   3.645   3.001  0.0847  0.2066 -0.1599
    1W        W60962   6.449   6.139   0.091 -0.1573  0.0164  0.0499
    1W        W60963   0.116   9.806   1.474 -0.2365  0.0737  0.1437
    1W        W60964  20.009  27.189   2.487  0.1499  0.2239 -0.0446
    1W        W60965   2.848  26.366   0.619  0.0287  0.1465 -0.2812
    1W        W60966  29.117  11.086   7.081 -0.1257  0.2271  0.1360
    1W        W60967   9.443  28.693   0.874  0.0023  0.0999  0.3482
    1W        W60968  12.998   8.217   0.208 -0.5565 -0.0599  0.0715
    1W        W60969  10.935  27.588   8.753 -0.0575  0.2649 -0.0797
    1W        W60970   5.857  20.428   7.477  0.2350 -0.0582  0.1661
    1W        W60971  25.197  26.936   7.975 -0.4167 -0.3198 -0.1004
    1W        W60972  19.720  13.569   2.358  0.1210  0.4644 -0.0321
    1W        W60973   5.585  24.386   0.312  0.3654 -0.0806 -0.1856
    1W        W60974  27.200   6.092   5.607 -0.0698 -0.1887  0.1207
    1W        W60975   2.257  10.442   6.290 -0.2715  0.1784  0.1116
    1W        W60976  13.740   9.701   8.272 -0.1234 -0.1480 -0.0196
    1W        W60977   1.298  19.141   1.932 -0.0774  0.1865 -0.0302
    1W        W60978  26.890   9.470   8.606 -0.0489  0.1576 -0.1362
    1W        W60979  29.203  11.509   6.825 -0.0150 -0.0423  0.2395
    1W        W60980  17.301  12.047   1.530  0.0422  0.2778  0.1303
    1W        W60981  23.397   8.817   6.706  0.1023  0.3409 -0.0153
    1W        W60982   6.335  14.594   0.451  0.1517  0.1162 -0.3480
    1W        W60983  14.600   5.614   1.881  0.0863  0.1285  0.0100
    1W        W60984   7.819  20.133   7.012 -0.0084  0.1104 -0.0365
    1W        W60985  26.940   9.585   6.756  0.0417  0.3784  0.0165
    1W        W60986   0.866  25.694   6.281 -0.2353  0.0897  0.0247
    1W        W60987  19.343  16.405   8.206  0.1783  0.3176  0.0917
    1W        W60988   4.138  21.121   0.160 -0.3581  0.0691 -0.1962
    1W        W60989  18.254  25.570   1.146 -0.1208 -0.3487 -0.1374
    1W        W60990  16.010  28.610   0.182 -0.0977  0.0439 -0.1246
    1W        W60991  27.279   8.223   2.160 -0.0843  0.2004  0.0953
    1W        W60992  18.030  22.984   0.025 -0.0852 -0.2645  0.3093
    1W        W60993  27.527   1.150   0.653 -0.0875 -0.2149 -0.0418
    1W        W60994  24.045  24.832   1.160  0.2758  0.0876  0.1122
    1W        W60995  25.456  24.565   8.264 -0.1916  0.1637  0.1504
    1W        W60996  18.733  10.829   2.258  0.3506 -0.0732 -0.1030
    1W        W60997   4.360  11.635   1.307 -0.1421  0.0686 -0.2411
    1W        W60998  24.494   6.430   9.579  0.1591 -0.1946 -0.3251
    1W        W60999   6.768  29.215   7.651 -0.4497  0.0189  0.1092
    1W        W61000  16.705   5.279   1.353  0.1275  0.1930 -0.0789
    1W        W61001  23.289  20.509   1.899  0.2487  0.0724  0.2131
    1W        W61002  24.660  19.680   1.888  0.3618  0.0460  0.3065
    1W        W61003  19.140  12.021   9.600 -0.0661  0.1129 -0.3585
    1W        W61004  21.223  21.908   8.538 -0.3300 -0.0383 -0.0483
    1W        W61005  26.041  26.535   8.668 -0.2044  0.2840 -0.2528
    1W        W61006   9.531  10.693   2.147 -0.2818 -0.0149 -0.1647
    1W        W61007  14.127  25.797   2.941  0.1827  0.2941 -0.0249
    1W        W61008   4.190  21.627   9.336  0.1885  0.1546  0.1841
    1W        W61009  27.038  14.714   8.386 -0.2949 -0.4424  0.2729
    1W        W61010  13.214  17.173   8.739  0.0369 -0.0959 -0.1722
    1W        W61011   0.921  11.434   8.919  0.0712 -0.1177 -0.0014
    1W        W61012  25.418  11.824   6.318  0.0752  0.2993  0.1295
    1W        W61013  25.083  24.950   0.474  0.0027 -0.1082  0.3420
    1W        W61014  19.814  23.394   3.562  0.3146 -0.2117  0.1826
    1W        W61015   3.473   8.659   9.201 -0.0095 -0.1486  0.3346
    1W        W61016   4.279  20.032   7.105  0.0662  0.2813  0.0952
    1W        W61017   9.019   4.636   2.068 -0.0955 -0.3344  0.2251
    1W        W61018  19.173   0.346   0.660 -0.0643 -0.1729 -0.3336
    1W        W61019  17.374  21.413   0.615 -0.2746  0.1000 -0.2320
    1W        W61020  16.404  10.117   0.573 -0.0005  0.3384 -0.0495
    1W        W61021  23.253  17.177   0.769  0.0897 -0.1894 -0.5658
    1W        W61022  26.124  20.898   0.857 -0.0474  0.1917  0.1982
    1W        W61023   0.783   5.416   7.246 -0.0895 -0.1088  0.1247
    1W        W61024   5.475  28.960   7.501 -0.1925  0.3164 -0.1173
    1W        W61025  27.303  15.599   6.157 -0.1669 -0.0025  0.0144
    1W        W61026  19.231  27.067   0.933  0.1188 -0.3825  0.1049
    1W        W61027  19.826  26.098   1.188  0.2268 -0.0595  0.4348
    1W        W61028   4.512  19.169   9.115  0.0788 -0.2569 -0.0596
    1W        W61029   8.493  18.719   2.137 -0.1607  0.1364 -0.2545
    1W        W61030   4.588  22.286   1.891  0.0803  0.1834 -0.3283
    1W        W61031  20.032  27.990   3.364 -0.4207 -0.0086 -0.0118
    1W        W61032   5.586   3.782   1.437  0.2412  0.0960  0.3273
    1W        W61033  25.829   1.630   8.553 -0.4281 -0.0084 -0.1017
    1W        W61034  26.073  16.830   8.893  0.3222  0.1152  0.0275
    1W        W61035  28.087  10.044   1.780  0.0490 -0.1065  0.0029
    1W        W61036  25.803   1.156   0.655 -0.0792 -0.0362 -0.0249
    1W        W61037  15.123  18.956   8.697  0.4737  0.0144 -0.0432
    1W        W61038   4.776  10.254   7.378  0.0750  0.2434 -0.0145
    1W        W61039   8.688  16.010   1.341  0.0723 -0.1490  0.0313
    1W        W61040  20.893  13.611   1.673 -0.3069 -0.0935 -0.0390
    1W        W61041  25.291  13.634   7.276 -0.3162  0.2133  0.0926
    1W        W61042  18.182  11.051   9.117  0.0648  0.0810  0.0789
    1W        W61043   9.728   6.710   9.179  0.1869  0.2368  0.1321
    1W        W61044  10.652  18.818   2.059 -0.1069 -0.1104 -0.1058
    1W        W61045   1.620  13.092   9.316  0.0838  0.2346  0.0646
    1W        W61046   7.428  24.397   2.126 -0.2852 -0.2490 -0.1090
    1W        W61047  12.393  13.632   7.258 -0.2194 -0.0903  0.0888
    1W        W61048   3.491   6.394   2.661 -0.0046  0.0267  0.0040
    1W        W61049  26.784  11.928   8.612 -0.0923 -0.3558 -0.0269
    1W        W61050  10.877  15.499   2.126  0.3853 -0.1211  0.3539
    1W        W61051  26.076  24.969   7.186 -0.1297  0.1894  0.0410
    1W        W61052  19.647   8.259   7.987 -0.0997  0.2890 -0.1637
    1W        W61053  14.559  16.849   9.093 -0.3047 -0.0191  0.0678
    1W        W61054  19.226   9.167   8.266  0.0597  0.0904 -0.0202
    1W        W61055  15.221   2.670   3.096 -0.0704  0.0191 -0.0305
    1W        W61056  27.245  18.262   7.220 -0.0126  0.1533 -0.1758
    1W        W61057  16.788  23.741   7.507 -0.0036 -0.1875 -0.2499
    1W        W61058   5.312  18.646   2.234 -0.0443  0.0030 -0.0924
    1W        W61059  20.213  10.027   9.158 -0.3453  0.2339 -0.3245
    1W        W61060  21.405  14.487   9.549 -0.1684  0.3566  0.0561
    1W        W61061  22.398  27.359   8.038  0.0263 -0.2791  0.1652
    1W        W61062   6.999   6.686   2.966  0.0020 -0.1203 -0.0386
    1W        W61063   5.692  15.901   1.337  0.2235 -0.2480 -0.1476
    1W        W61064  24.596  28.041   6.933 -0.0547  0.1335  0.1395
    1W        W61065  16.770  24.680   1.571 -0.0301 -0.2709  0.0847
    1W        W61066   8.416  18.192   8.171 -0.0075 -0.1222 -0.3186
    1W        W61067  15.381  12.551   8.969  0.0801 -0.2160 -0.2838
    1W        W61068  17.715  12.040   2.311 -0.0321 -0.2062 -0.0093
    1W        W61069  27.761   7.700   1.068 -0.2188  0.0316  0.5017
    1W        W61070  24.591   0.765   7.550 -0.3841  0.2157  0.1239
    1W        W61071  27.093   9.107   6.899  0.3105 -0.1455  0.0468
    1W        W61072   4.332  17.810   1.651  0.1822 -0.1522  0.1369
    1W        W61073  14.195  12.759   8.342 -0.0192  0.1281  0.1006
    1W        W61074   6.295  16.087   9.030 -0.1598 -0.1059  0.0138
    1W        W61075   4.658   4.132   7.121  0.0259  0.1688 -0.3379
    1W        W61076  24.545  13.323   8.178  0.0185  0.2069 -0.1557
    1W        W61077   6.801  23.048   6.917  0.3286 -0.1255  0.1943
    1W        W61078  24.525  23.925   7.222  0.0399 -0.2419 -0.0668
    1W        W61079  19.876   0.573   6.842  0.3287  0.0286  0.4221
    1W        W61080   7.365  26.841   0.458  0.0082 -0.3397  0.2449
    1W        W61081  23.005  13.471   0.758 -0.0023 -0.1127 -0.3031
    1W        W61082   3.295  27.552   1.797  0.0552 -0.2168 -0.2997
    1W        W61083  16.481   2.440   9.014 -0.0698  0.0230  0.0821
    1W        W61084  18.050  25.107   1.980  0.2480  0.1426 -0.1142
    1W        W61085  14.164  13.983   8.621  0.1172 -0.0365 -0.0602
    1W        W61086  10.823  21.843   6.744 -0.2502 -0.1210  0.0817
    1W        W61087   2.177  15.158   5.997 -0.2798  0.3833  0.3505
    1W        W61088  11.013  19.519   9.652  0.3379  0.1238 -0.0062
    1W        W61089  25.666  18.648   7.077  0.1098 -0.1200  0.0176
    1W        W61090  24.745  12.934   9.046 -0.1505  0.1458 -0.2079
    1W        W61091  23.738   4.237   7.708  0.0996  0.2886  0.0368
    1W        W61092  22.377  25.305   2.831  0.0138 -0.1461  0.1471
    1W        W61093  21.518   5.501   7.053 -0.1133  0.0243 -0.1495
    1W        W61094  19.024   4.317   0.799 -0.1085  0.0703 -0.2176
    1W        W61095   7.632  21.513   2.955 -0.0315  0.2756 -0.2837
    1W        W61096   3.973   3.833   6.943  0.3473  0.0605  0.0044
    1W        W61097   9.785  17.828   0.865  0.0284  0.3299 -0.1388
    1W        W61098  26.829   6.745   1.599  0.2373  0.2228 -0.2143
    1W        W61099  18.639  14.648   1.240 -0.2338  0.0560 -0.3171
    1W        W61100   8.724  10.400   0.556 -0.1796  0.0010  0.0700
    1W        W61101   7.112  22.639   2.815  0.1761 -0.1777 -0.2992
    1W        W61102  14.235   0.876   2.493  0.0437 -0.2373  0.1571
    1W        W61103  20.366  12.860   7.214 -0.3141 -0.0549  0.2717
    1W        W61104  14.004  18.626   7.726  0.1098 -0.0600 -0.2246
    1W        W61105  29.031  25.644   8.334 -0.2520 -0.1332 -0.1568
    1W        W61106   1.937  27.822   3.543  0.0828  0.0994  0.1949
    1W        W61107  24.676  15.282   7.954  0.0999  0.3048  0.0398
    1W        W61108  15.717   9.633   8.464  0.2980 -0.1223  0.0648
    1W        W61109  19.437   4.900   9.052 -0.3843  0.0213 -0.1621
    1W        W61110  15.088  25.212   8.117  0.0149  0.2481  0.0969
    1W        W61111  23.583  13.238   6.986 -0.1392  0.0366  0.1186
    1W        W61112   2.442   6.910   7.044  0.3003  0.1813  0.0078
    1W        W61113   7.238  26.302   1.820 -0.1949  0.0308 -0.2345
    1W        W61114  10.210  21.386   0.106  0.0071 -0.0262  0.2381
    1W        W61115  28.518  25.856   2.095 -0.0192  0.0106  0.1380
    1W        W61116   7.729  27.562   2.443  0.0037  0.3129  0.1323
    1W        W61117   4.311   3.201   7.301  0.0204 -0.0430  0.3800
    1W        W61118  25.210  24.512   7.351 -0.4406  0.1257 -0.2110
    1W        W61119   7.322  15.846   9.428  0.2145 -0.0282 -0.1966
    1W        W61120   0.261  13.904   8.799 -0.0721  0.0344 -0.0112
    1W        W61121  25.847  13.688   9.217  0.2049 -0.0538 -0.2246
    1W        W61122   1.105  27.674   3.447 -0.2204  0.1120  0.1294
    1W        W61123   9.151  15.367   1.775 -0.4505 -0.2212 -0.0154
    1W        W61124   6.879  24.518   1.140  0.0406  0.1396  0.0709
    1W        W61125  11.201   5.588   3.227 -0.1455  0.0284  0.1619
    1W        W61126  21.438  13.418   1.530 -0.0485 -0.2882  0.1577
    1W        W61127  27.982   7.596   7.440  0.1803  0.0130 -0.2782
    1W        W61128   9.409   8.859   1.633  0.0406  0.2673 -0.1367
    1W        W61129  19.063  18.574   0.239  0.1037 -0.1434  0.1814
    1W        W61130  13.742   2.261   1.238 -0.1863 -0.3523 -0.2268
    1W        W61131  18.580   5.194   1.913  0.1265  0.0003 -0.0013
    1W        W61132  29.110  22.484   6.116 -0.1214 -0.1798  0.0581
    1W        W61133  16.345  23.641   6.555  0.0228 -0.0528  0.1176
    1W        W61134  15.030   5.028   8.649  0.4023 -0.0414 -0.1608
    1W        W61135  17.453   6.428   9.034 -0.1142  0.3445  0.1844
    1W        W61136   7.300  25.242   2.240  0.0927  0.0158 -0.4869
    1W        W61137  24.460  26.616   8.115  0.1146 -0.1727  0.0846
    1W        W61138  16.507   0.737   3.067  0.2312 -0.0970 -0.0172
    1W        W61139   0.354   1.737   1.676  0.1820 -0.0429 -0.0874
    1W        W61140   9.459   4.910   2.192  0.3865 -0.2825  0.2255
    1W        W61141  22.414   3.509   2.559  0.2622 -0.2428  0.0486
    1W        W61142  13.415  26.221   3.009 -0.0695  0.1760  0.1248
    1W        W61143   4.563   5.792   1.643 -0.1103 -0.1759  0.2097
    1W        W61144  12.679   2.991   3.226  0.1901  0.1901 -0.0891
    1W        W61145  22.058  12.077   0.785  0.0863 -0.0575 -0.2013
    1W        W61146   1.467  15.422   1.897  0.1494 -0.1926  0.1373
    1W        W61147   0.438  28.125   1.974 -0.2823  0.0481 -0.2311
    1W        W61148  18.834   2.729   0.163  0.1847 -0.0364 -0.0577
    1W        W61149  14.305   3.835   3.097  0.1649 -0.0349  0.2203
    1W        W61150   7.178  16.900   7.438 -0.1215  0.2295 -0.4316
    1W        W61151  27.232  26.036   1.170 -0.0484  0.2732 -0.0388
    1W        W61152   7.680  17.517   1.068 -0.4779  0.2684 -0.2344
    1W        W61153  28.249   1.558   3.129 -0.3006  0.0136 -0.2691
    1W        W61154   4.298  10.448   0.509  0.0730 -0.0290  0.1470
    1W        W61155   2.415  12.584   7.686  0.0697 -0.2071  0.4369
    1W        W61156   8.488  19.633   1.956 -0.3384  0.1191 -0.0188
    1W        W61157  27.368   0.409   2.967 -0.0145 -0.1300 -0.1667
    1W        W61158   9.888  13.450   1.954 -0.0892  0.0442  0.1408
    1W        W61159  14.748  15.324   7.666 -0.0213 -0.1157 -0.1946
    1W        W61160  21.232   3.730   0.271  0.0436 -0.1352  0.1591
    1W        W61161  17.564  21.370   9.202 -0.0816 -0.1457  0.1506
    1W        W61162  23.476  26.133   7.380 -0.0484  0.0581  0.0966
    1W        W61163   4.053   7.660   2.172 -0.0135  0.2090  0.3471
    1W        W61164  27.102  11.047   7.057 -0.0220  0.1947 -0.1607
    1W        W61165  22.994   1.111   2.189  0.1778  0.0975 -0.2512
    1W        W61166  19.404  15.709   1.438  0.0600  0.2887  0.0140
    1W        W61167  12.255  24.696   2.863  0.0880 -0.3196  0.1717
    1W        W61168   9.863  16.760   6.490 -0.0793 -0.0142  0.0514
    1W        W61169  21.997   4.937   2.921 -0.0329  0.0278  0.1397
    1W        W61170  29.303  18.122   2.079  0.1886 -0.1897 -0.0281
    1W        W61171   5.465  19.002   9.205  0.1430 -0.1879  0.1972
    1W        W61172   3.256  28.310   6.867  0.1430 -0.0871 -0.3387
    1W        W61173   1.042   9.418   0.304 -0.3475 -0.4243 -0.1209
    1W        W61174  21.598   9.884   1.089 -0.0631  0.3534  0.0069
    1W        W61175  10.252  13.569   7.056  0.0867  0.0613 -0.1148
    1W        W61176  16.457  11.729   8.709 -0.3097 -0.0516  0.1048
    1W        W61177   4.225   9.547   1.441 -0.0298 -0.2598  0.5475
    1W        W61178   1.478  28.937   9.127  0.1040 -0.1697  0.0115
    1W        W61179  11.125  18.624   0.688 -0.0655 -0.0703  0.1826
    1W        W61180  17.570  18.195   9.226 -0.0951 -0.4475  0.0897
    1W        W61181  12.625  12.000   1.677  0.1308  0.1895 -0.0783
    1W        W61182  19.296   9.098   2.243 -0.0603  0.2657  0.0127
    1W        W61183   6.426  25.492   8.903  0.0371  0.0961  0.3004
    1W        W61184  16.429   4.679   2.817 -0.3859 -0.1466  0.1201
    1W        W61185  26.924   9.619   7.985  0.1207 -0.0721 -0.4223
    1W        W61186  26.862   1.738   6.974 -0.0397 -0.0462 -0.2909
    1W        W61187   4.255  18.754   7.740  0.3186  0.0611 -0.1031
    1W        W61188  22.209  20.392   0.958  0.1896  0.2506  0.1666
    1W        W61189  18.539  24.920   2.067  0.0190 -0.0704 -0.2602
    1W        W61190  16.124  19.225   9.147 -0.0208 -0.1353 -0.1999
    1W        W61191  23.938  12.993   0.759 -0.1074 -0.1982  0.1039
    1W        W61192  16.308   9.605   0.341 -0.2349 -0.1245  0.2633
    1W        W61193   9.687  17.303   1.039  0.0832 -0.1513  0.2183
    1W        W61194  12.672  28.318   3.043 -0.1389 -0.0755  0.0540
    1W        W61195   2.006  17.206   2.107  0.1713 -0.0335 -0.0879
    1W        W61196  14.039  21.166   9.047  0.1402 -0.0493  0.3085
    1W        W61197  25.727  13.798   0.438  0.1267 -0.2376  0.2156
    1W        W61198   7.847   7.440   8.531  0.2433 -0.0809 -0.1759
    1W        W61199   1.556   7.907   8.403  0.0355  0.0473 -0.1666
    1W        W61200   6.280   9.113   7.359  0.0319 -0.0862  0.5619
    1W        W61201   7.123  24.061   1.862  0.0424 -0.0563  0.3156
    1W        W61202   4.207   3.318   1.107 -0.2473  0.1194 -0.2399
    1W        W61203  19.177   0.557   0.115  0.0577 -0.1547  0.2013
    1W        W61204  20.310   7.917   9.391 -0.3297 -0.1485  0.0100
    1W        W61205  12.192  27.195   2.097 -0.0414 -0.0504 -0.2456
    1W        W61206  12.082   9.439   1.405 -0.2201 -0.1158 -0.0140
    1W        W61207  10.014  20.892   8.828  0.2203 -0.0600  0.4209
    1W        W61208  10.099  21.534   7.982 -0.0007 -0.1456 -0.0671
    1W        W61209  24.704  26.215   8.204  0.0070  0.0132  0.1920
    1W        W61210   4.506  11.807   9.030  0.0485 -0.0118 -0.2530
    1W        W61211  14.351  18.773   9.270  0.0343  0.0319 -0.5019
    1W        W61212   8.315  24.264   7.014 -0.1166  0.0310  0.0900
    1W        W61213   2.972  10.048   0.370 -0.0645  0.1758 -0.0662
    1W        W61214  19.499  16.089   8.963 -0.0421  0.0392  0.2923
    1W        W61215  10.893  16.278   8.813 -0.0156 -0.3985 -0.0929
    1W        W61216   7.749   2.457   7.642  0.0037  0.1641  0.2148
    1W        W61217  29.227   5.493   7.222  0.0197 -0.2833  0.0339
    1W        W61218  18.636   9.361   2.633  0.1475 -0.2669 -0.0649
    1W        W61219   9.598  10.296   7.925 -0.1732 -0.0871 -0.2367
    1W        W61220  24.739  23.370   6.140 -0.0936 -0.0067 -0.2725
    1W        W61221  19.338  13.542   8.429 -0.1853  0.0524 -0.2207
    1W        W61222  29.033  12.177   9.131  0.0608 -0.0619 -0.2907
    1W        W61223   6.032  22.048   9.325  0.0318  0.1383 -0.0674
    1W        W61224  27.446  22.410   1.885  0.0356 -0.1805 -0.1606
    1W        W61225  14.072  27.660   3.392 -0.1001  0.4473  0.2571
    1W        W61226   6.067  11.290   1.094  0.5218 -0.1581  0.2376
    1W        W61227  12.588   2.520   9.022 -0.1361 -0.1704  0.0515
    1W        W61228  22.026   8.065   2.196  0.2744  0.0841 -0.1439
    1W        W61229   4.992  17.374   9.132  0.0484 -0.0962 -0.1738
    1W        W61230   3.263   7.134   8.514 -0.1631  0.0282  0.1583
    1W        W61231  26.115  15.004   0.168  0.3133 -0.1697  0.2375
    1W        W61232   3.995  10.239   6.956  0.1541 -0.0619 -0.1901
    1W        W61233  12.842   6.337   0.725  0.0926 -0.3264 -0.2232
    1W        W61234  20.130   0.296   6.165  0.0995  0.0317  0.1732
    1W        W61235   4.759  26.749   2.095  0.0684 -0.3790 -0.0907
    1W        W61236   8.221   3.168   0.600 -0.0639  0.0527 -0.0125
    1W        W61237   5.993  11.680   7.796 -0.0093 -0.0770 -0.1015
    1W        W61238   4.425   3.466   2.819  0.0682  0.0277  0.0711
    1W        W61239  10.370  18.181   7.767  0.1334  0.0721  0.1730
    1W        W61240  22.186  18.124   9.365  0.0258  0.1118 -0.1399
    1W        W61241   0.554   9.456   0.342  0.1786  0.0477  0.0747
    1W        W61242   6.965   9.132   1.596  0.0081  0.3446 -0.0374
    1W        W61243  19.886  12.380   2.748 -0.1882  0.3822 -0.1306
    1W        W61244  11.989   1.037   1.322  0.2184 -0.0551  0.0010
    1W        W61245   9.684   4.783   0.172 -0.1185 -0.0160  0.0343
    1W        W61246  11.861   9.542   8.038 -0.0811  0.0581 -0.3785
    1W        W61247  22.754  14.578   1.234  0.1432 -0.3097  0.1680
    1W        W61248  21.627  29.260   2.146 -0.0038 -0.0806 -0.0321
    1W        W61249   8.627   2.061   1.036 -0.2926 -0.0312  0.1286
    1W        W61250   2.381  15.305   6.558 -0.2716  0.1638 -0.0617
    1W        W61251  27.481   5.930   0.988  0.0390  0.1781  0.1184
    1W        W61252  14.486  10.024   1.137 -0.1295 -0.1857  0.3391
    1W        W61253  23.961  20.897   2.781  0.1103 -0.2318  0.0404
    1W        W61254  26.832   2.311   7.264  0.1053  0.0460 -0.0140
    1W        W61255  14.840  12.788   8.264  0.2117 -0.2338 -0.3625
    1W        W61256  23.705   1.978   9.339  0.0189 -0.0443 -0.1481
    1W        W61257   4.757  20.343   2.268  0.2950 -0.1878  0.1848
    1W        W61258   6.184   0.552   1.963 -0.0243 -0.1235  0.1387
    1W        W61259   7.404  27.943   7.677 -0.2260  0.3827  0.2953
    1W        W61260  14.244  26.835   2.748  0.1554  0.0489 -0.0807
    1W        W61261  17.970  26.551   0.164  0.0539 -0.0149  0.0657
    1W        W61262   6.431   7.876   8.718 -0.2829  0.4138  0.2162
    1W        W61263  23.945   0.817   0.822 -0.1999 -0.2672 -0.2282
    1W        W61264   0.507  14.541   7.393  0.1639  0.2155 -0.3907
    1W        W61265   8.110   4.445   1.785  0.4336 -0.3414  0.1379
    1W        W61266  10.816  18.200   8.819  0.0521 -0.1479 -0.0467
    1W        W61267  10.294  17.278   8.314  0.1202 -0.1023  0.2262
    1W        W61268  17.698  20.489   2.424 -0.1436  0.0304  0.0075
    1W        W61269  26.541  24.519   7.947  0.3226 -0.3212 -0.0477
    1W        W61270  28.682  13.633   7.061 -0.0693  0.0812  0.0312
    1W        W61271  16.083  27.247   7.133 -0.1880  0.1338 -0.1146
    1W        W61272  28.338   8.968   7.061  0.1578 -0.0895  0.2097
    1W        W61273  29.082  10.092   8.996  0.2938  0.1011  0.3519
    1W        W61274  10.688  22.110   0.415  0.2523 -0.0110 -0.0422
    1W        W61275  11.198   4.313   2.654 -0.6578  0.1566  0.1480
    1W        W61276   2.702  24.153   8.653  0.0014  0.0355 -0.0037
    1W        W61277  13.975   6.221   0.170  0.0145 -0.0070 -0.1641
    1W        W61278   1.373   5.458   0.914  0.1674 -0.1791 -0.1991
    1W        W61279  24.609   1.663   2.355 -0.0125  0.0603 -0.2342
    1W        W61280  18.929  26.532   8.675 -0.1782  0.0283  0.2402
    1W        W61281  24.671  15.255   9.361  0.0251 -0.1580 -0.1180
    1W        W61282  15.878  23.715   1.142 -0.1203  0.0908  0.0176
    1W        W61283   2.972  13.500   7.155  0.2252  0.0411  0.0004
    1W        W61284   7.364   7.181   2.353  0.2562 -0.0203  0.0817
    1W        W61285   3.123  12.769   1.636 -0.1638 -0.1864 -0.0883
    1W        W61286  18.091  23.482   9.601 -0.0274  0.0380  0.0817
    1W        W61287   8.510   2.449   7.330 -0.1548  0.2538  0.2488
    1W        W61288  22.145  26.536   8.513  0.2631 -0.1799 -0.2698
    1W        W61289  27.459  10.666   6.905  0.1506  0.0247 -0.3689
    1W        W61290   7.305  17.680   6.089 -0.0783 -0.0887 -0.0623
    1W        W61291  19.378   1.861   0.119 -0.0754 -0.4087 -0.0676
    1W        W61292  28.716   8.983   3.204 -0.1637  0.1472  0.2011
    1W        W61293  14.730   6.474   1.384  0.0998 -0.1716 -0.2517
    1W        W61294  22.569   2.962   2.200 -0.3394  0.3356 -0.0145
    1W        W61295  23.100   1.454   9.193  0.3573 -0.2635 -0.0968
    1W        W61296  24.202   0.245   9.005  0.1235 -0.0022 -0.0838
    1W        W61297   8.040   0.082   3.199 -0.2541 -0.0707 -0.0307
    1W        W61298   6.263  29.177   7.548 -0.1322  0.4374  0.1268
    1W        W61299   4.125   5.715   7.658 -0.1687 -0.0707 -0.1389
    1W        W61300  18.441  18.664   1.765  0.0912 -0.2345 -0.0740
    1W        W61301   1.338  18.408   0.065 -0.3865 -0.0026  0.1157
    1W        W61302  20.777  21.572   7.784  0.1283  0.1870  0.3079
    1W        W61303   2.121  22.384   2.593 -0.3051  0.1699 -0.0725
    1W        W61304  20.270   3.946   7.051  0.1087 -0.1893 -0.2552
    1W        W61305  15.927  22.431   2.105 -0.1543 -0.0591  0.2337
    1W        W61306  16.620  15.531   8.785  0.3095  0.0331  0.0260
    1W        W61307  16.340   1.967   3.519 -0.0775  0.1527 -0.2384
    1W        W61308   3.836  14.840   0.737 -0.0320 -0.0156  0.0220
    1W        W61309  20.679  10.432   8.581 -0.1829 -0.1588  0.2066
    1W        W61310   5.986  18.709   1.610  0.0043 -0.1842 -0.0400
    1W        W61311   2.706   3.584   9.207  0.1038  0.1695  0.1095
    1W        W61312  20.632  14.407   1.812 -0.0023 -0.1285 -0.0517
    1W        W61313   9.415   9.171   9.442 -0.0529 -0.0637  0.2143
    1W        W61314  17.239  27.095   2.335  0.5542  0.0619  0.4958
    1W        W61315  25.152  23.105   2.377 -0.0126 -0.1162 -0.0671
    1W        W61316  10.511   4.030   2.185  0.1520  0.3387  0.0781
    1W        W61317  27.419   3.582   8.952 -0.0238 -0.0703  0.1175
    1W        W61318   5.314   6.336   7.112  0.1000  0.0005  0.4532
    1W        W61319  10.061  22.415   8.877  0.3006  0.2251 -0.2747
    1W        W61320   5.571  25.736   6.173 -0.2687  0.0918  0.1079
    1W        W61321  29.081  10.126   5.900  0.1271  0.2185  0.0553
    1W        W61322   9.261  26.993   8.928 -0.1176 -0.1995 -0.0288
    1W        W61323  24.221  29.298   6.782 -0.1143 -0.1672  0.0683
    1W        W61324  25.716  24.321   0.984  0.0236 -0.1685  0.1143
    1W        W61325  23.504   9.285   2.107 -0.0528  0.0291  0.1421
    1W        W61326  27.661   1.131   7.452 -0.2177 -0.2012  0.0851
    1W        W61327   9.702  17.581   1.883  0.2163 -0.0206  0.3063
    1W        W61328  15.716  20.420   2.461  0.0362 -0.1426  0.1414
    1W        W61329  24.707   8.965   6.682  0.1293  0.3042  0.1071
    1W        W61330  11.519  17.474   1.553 -0.1813  0.2281  0.1790
    1W        W61331   7.756   8.955   8.045 -0.1738 -0.0684  0.1376
    1W        W61332  15.614   8.407   8.707 -0.0629  0.0372 -0.1863
    1W        W61333  14.790  10.228   2.399  0.2417 -0.0568 -0.3736
    1W        W61334  26.129  17.734   7.963 -0.2964 -0.1177  0.0944
    1W        W61335  23.995  27.743   1.239 -0.1506  0.0158 -0.0644
    1W        W61336   5.560   2.080   2.526  0.2601 -0.2609  0.0182
    1W        W61337   1.013   6.187   7.942  0.1346  0.2905  0.0143
    1W        W61338   6.217  13.936   6.677  0.1408  0.1546 -0.0339
    1W        W61339  22.920  14.964   6.801  0.4428 -0.1911 -0.0344
    1W        W61340  27.112   0.820   6.987 -0.2954 -0.0425  0.0048
    1W        W61341   0.905  11.261   0.967  0.1713  0.1786 -0.5875
    1W        W61342  28.671  17.569   0.669  0.6789 -0.4438 -0.0083
    1W        W61343  27.686   6.700   9.052 -0.1854  0.1425  0.0416
    1W        W61344  20.729   6.709   0.572  0.3865  0.2263 -0.1535
    1W        W61345  21.153  18.571   2.454 -0.0726 -0.0170  0.1473
    1W        W61346   8.312  18.597   8.739  0.2060  0.2564 -0.1564
    1W        W61347  16.621  23.807   8.348  0.1583 -0.0117  0.0330
    1W        W61348  28.135   1.122   7.218 -0.2519 -0.0450  0.1751
    1W        W61349  14.401   2.666   2.754  0.2017  0.0355  0.1159
    1W        W61350  26.080   0.995   0.267 -0.2379 -0.1509 -0.0444
    1W        W61351   6.115  23.583   6.385  0.3937  0.2681 -0.2033
    1W        W61352  12.478  21.525   6.967 -0.1176 -0.2435  0.2289
    1W        W61353  14.384  14.275   0.265  0.0617 -0.2031  0.1792
    1W        W61354  28.744   2.731   2.379  0.1060 -0.3281  0.1677
    1W        W61355  18.718  28.541   7.590  0.2852 -0.2819 -0.0687
    1W        W61356  19.906   1.421   8.317 -0.0271  0.0548  0.1587
    1W        W61357   3.255  28.742   7.238 -0.0326  0.2311  0.1757
    1W        W61358  23.097  16.403   6.874  0.1606  0.0963  0.0876
    1W        W61359  23.231   0.484   8.616 -0.1150 -0.0254 -0.1762
    1W        W61360   5.997  19.667   6.389  0.0803 -0.1073  0.0949
    1W        W61361  18.352  24.052   1.779  0.1473 -0.1085 -0.1430
    1W        W61362  16.702   7.842   3.446 -0.1115  0.0509  0.0015
    1W        W61363   9.496  12.544   8.535  0.2958 -0.3090  0.1601
    1W        W61364   7.629  21.619   6.051  0.0807  0.2288  0.2928
    1W        W61365  23.064   4.164   8.445  0.1028 -0.1240  0.0439
    1W        W61366  15.471  19.108   2.856  0.0485 -0.3884 -0.0582
    1W        W61367  28.442   4.909   3.006 -0.1351  0.0681  0.0175
    1W        W61368   3.894  20.532   6.382 -0.1219  0.2095 -0.1312
    1W        W61369   1.065  22.985   9.215 -0.2020 -0.0679 -0.0016
    1W        W61370  13.713  20.726   8.639  0.2025  0.1088  0.0388
    1W        W61371  24.403  12.935   0.814  0.2803 -0.0387 -0.0144
    1W        W61372   0.926  11.712   0.572 -0.1738  0.1210  0.2530
    1W        W61373   1.539   1.515   9.207  0.4395  0.0852 -0.0588
    1W        W61374   5.053   6.320   0.872 -0.0528  0.0045  0.1257
    1W        W61375   7.773  22.157   7.915  0.1144 -0.3309 -0.1618
    1W        W61376  25.423  12.159   1.118  0.1066 -0.2261 -0.0565
    1W        W61377   6.126   6.645   1.928 -0.3014  0.1543  0.0917
    1W        W61378  14.717   0.670   8.115 -0.1881 -0.0460  0.2510
    1W        W61379  25.100   6.353   1.621 -0.0488 -0.3238  0.1616
    1W        W61380  11.707  20.942   7.782  0.0629  0.0465  0.1557
    1W        W61381  19.271  11.129   2.999 -0.1491 -0.0523  0.1451
    1W        W61382   4.750  23.790   1.097  0.1045 -0.2630 -0.1381
    1W        W61383  17.345  19.068   7.603  0.0102 -0.3100  0.1392
    1W        W61384  24.871   0.544   6.367  0.1030 -0.0267  0.1356
    1W        W61385  20.314  22.506   0.257 -0.3627  0.0822  0.0342
    1W        W61386  11.111   7.673   8.181 -0.0286  0.1631  0.0039
    1W        W61387  23.940   7.523   6.984 -0.0324  0.0523  0.2780
    1W        W61388  19.479  19.834   1.573  0.0319 -0.3819  0.3147
    1W        W61389  15.282  24.318   7.851  0.0854  0.3004 -0.1536
    1W        W61390  10.731  20.316   9.683 -0.1726 -0.1810  0.1794
    1W        W61391   1.962  13.509   8.066  0.2192 -0.2748 -0.2013
    1W        W61392   7.392   4.141   1.578 -0.0086 -0.1830  0.0707
    1W        W61393   6.495  26.299   0.768  0.0567 -0.2072 -0.1102
    1W        W61394  12.561  26.625   8.742  0.4095  0.0198  0.1177
    1W        W61395   2.336  19.443   0.951  0.0715  0.0015  0.1135
    1W        W61396  25.708  18.091   0.722  0.2974 -0.1960 -0.0345
    1W        W61397   6.319  22.989   0.898 -0.1062 -0.1545 -0.0724
    1W        W61398   2.111  15.970   8.772  0.1977 -0.2191  0.4582
    1W        W61399   5.354  15.021   2.517  0.3360 -0.1211 -0.3047
    1W        W61400  14.084   7.342   8.007 -0.0581 -0.3358  0.0054
    1W        W61401  12.575   2.604   3.744  0.1258  0.1986 -0.2078
    1W        W61402   4.805   1.952   1.154 -0.2046  0.0620 -0.0318
    1W        W61403   6.615   5.805   7.801  0.0937  0.1717  0.1091
    1W        W61404   0.545  17.760   1.553 -0.0636 -0.1271 -0.1162
    1W        W61405  23.639  29.208   6.939  0.0676 -0.2194  0.1896
    1W        W61406  29.359   4.786   1.306 -0.4161  0.0237 -0.0603
    1W        W61407  14.061  23.268   0.115 -0.0703 -0.0551 -0.0738
    1W        W61408  20.653  22.267   2.228  0.2167  0.1973 -0.2756
    1W        W61409  25.826  11.382   2.082 -0.1127  0.4053 -0.0457
    1W        W61410  24.807  21.044   8.967 -0.2592  0.2079 -0.0498
    1W        W61411   2.564   5.437   8.259 -0.0322  0.0966  0.3354
    1W        W61412  25.940   7.646   1.924 -0.2780  0.1732 -0.0631
    1W        W61413  24.031  13.160   1.240  0.1827  0.0257 -0.0821
    1W        W61414  21.810  29.255   7.279 -0.0509  0.2156 -0.2470
    1W        W61415  25.126  28.776   2.089  0.0025 -0.1992  0.2405
    1W        W61416   1.917   1.484   7.812  0.1051 -0.0359  0.1480
    1W        W61417   0.340   7.715   7.493  0.3762  0.1222  0.1731
    1W        W61418   3.908   1.830   8.255 -0.1404  0.3217 -0.0055
    1W        W61419  19.050  15.492   7.463  0.0687 -0.0367 -0.1042
    1W        W61420  18.075  18.713   0.274  0.1996 -0.0739  0.0599
    1W        W61421   3.102  20.186   6.098  0.0636  0.0691 -0.0191
    1W        W61422  26.319  26.181   7.116  0.1517 -0.2049  0.0396
    1W        W61423  15.037  23.063   0.392 -0.1201 -0.4298  0.0006
    1W        W61424   2.074  19.806   8.281 -0.3653 -0.2945 -0.1337
    1W        W61425   9.855  24.777   6.571 -0.1662 -0.1559  0.0428
    1W        W61426  14.375  15.203   7.133 -0.1252 -0.0148  0.0935
    1W        W61427  12.176   8.828   3.324  0.1526 -0.2916 -0.0071
    1W        W61428  18.737   6.669   3.027  0.0651 -0.2593 -0.0683
    1W        W61429  14.088   3.523   2.652 -0.0278  0.0425 -0.1351
    1W        W61430   0.230   9.360   1.252 -0.0321  0.0660 -0.2311
    1W        W61431  14.276  21.237   1.598 -0.0761  0.0923 -0.2177
    1W        W61432   0.466   6.703   8.705  0.0600 -0.0326 -0.1696
    1W        W61433  13.462   1.599   2.696 -0.0686  0.1142 -0.1515
    1W        W61434  16.127  24.650   2.270  0.1394  0.0055  0.1988
    1W        W61435   7.876   5.353   2.105 -0.2182  0.2385 -0.0632
    1W        W61436   4.102   9.074   7.822  0.0105 -0.1312 -0.0559
    1W        W61437  10.047  10.558   2.736  0.0849  0.0022 -0.0276
    1W        W61438  15.522  15.255   8.600 -0.1768 -0.1358  0.1769
    1W        W61439   8.620  11.241   0.522 -0.1648  0.0194  0.2918
    1W        W61440   5.918  27.106   9.208  0.3265  0.0750  0.1130
    1W        W61441   4.697  23.225   1.645 -0.0491  0.2153  0.3059
    1W        W61442   4.919  13.728   8.450 -0.1084  0.1554  0.2568
    1W        W61443  18.123  29.127   0.044  0.1090 -0.0894 -0.0466
    1W        W61444  27.929  28.420   2.077 -0.0941 -0.1332  0.3268
    1W        W61445   1.984  16.946   1.129  0.1323 -0.0614  0.2486
    1W        W61446  21.784   7.497   2.036  0.1083  0.1388  0.0156
    1W        W61447  25.445  24.825   0.168 -0.1799 -0.0665 -0.1936
    1W        W61448  25.956  28.816   6.365 -0.3190 -0.1389 -0.1358
    1W        W61449  24.655  17.005   0.125 -0.0447  0.0762  0.2054
    1W        W61450  11.947  12.037   1.056 -0.1174  0.2118  0.2118
    1W        W61451  15.401   6.299   3.409  0.4793  0.0315  0.2458
    1W        W61452   6.780  23.704   8.169 -0.3020 -0.1470 -0.0584
    1W        W61453  22.377  15.400   1.586 -0.2282 -0.1017 -0.3010
    1W        W61454  11.381   8.310   1.053  0.0632  0.1178 -0.1860
    1W        W61455  12.510   4.337   4.081 -0.1625  0.0334 -0.5069
    1W        W61456  21.458  28.050   2.834 -0.1020  0.0762  0.1404
    1W        W61457  10.878  10.128   1.125 -0.3828  0.1295 -0.0983
    1W        W61458  29.019  11.933   2.277  0.2224 -0.2878 -0.0692
    1W        W61459   9.629   4.249   8.071 -0.0760 -0.2364 -0.0472
    1W        W61460  15.917  26.640   7.931 -0.1582  0.0206 -0.1844
    1W        W61461   8.186   5.350   0.505  0.0417  0.0261  0.0921
    1W        W61462  14.245  22.814   2.916 -0.4512  0.1260  0.0291
    1W        W61463  11.872   1.611   7.999  0.2152 -0.1779  0.1636
    1W        W61464  17.528   0.426   0.224  0.0055  0.1841  0.0376
    1W        W61465  12.909  24.937   7.785  0.0385 -0.0017 -0.0307
    1W        W61466  10.131  29.315   0.530 -0.3610  0.0719 -0.2134
    1W        W61467   9.403  28.314   3.663 -0.1286 -0.3933  0.2228
    1W        W61468   7.277  26.862   2.081  0.1803  0.0866 -0.0566
    1W        W61469   0.390  26.787   0.632  0.0849 -0.2225  0.0745
    1W        W61470   6.938  10.527   2.220 -0.0565  0.0228  0.0755
    1W        W61471  17.312   3.985   0.021  0.0206  0.1995  0.0907
    1W        W61472  25.627  17.153   7.012 -0.2489 -0.1551 -0.0291
    1W        W61473   0.036  10.104   2.007  0.1222 -0.2082 -0.1347
    1W        W61474  23.914  16.821   9.082  0.2657 -0.0955 -0.1814
    1W        W61475  16.818  20.015   9.354 -0.1739 -0.0768  0.1139
    1W        W61476  27.105   4.286   0.215  0.0486 -0.0318 -0.1912
    1W        W61477  19.846  26.223   2.820  0.0460  0.1360 -0.3031
    1W        W61478  12.751  10.928   1.238  0.3655 -0.1056  0.2584
    1W        W61479  26.357  16.016   8.694  0.4189 -0.0763  0.0903
    1W        W61480  17.203  14.245   7.762 -0.1803  0.1302 -0.3319
    1W        W61481  15.652   1.945   1.942 -0.0574  0.4384  0.1857
    1W        W61482   4.427   9.935   0.439 -0.0057 -0.1584 -0.1142
    1W        W61483  14.415  11.304   2.415  0.0274  0.0231  0.3544
    1W        W61484  11.614   4.069   3.822 -0.0598  0.3080  0.3148
    1W        W61485   8.032  28.988   2.480  0.1491 -0.5584  0.0118
    1W        W61486  12.551   1.938   0.215  0.1469  0.0205 -0.0146
    1W        W61487  22.397  28.304   8.205  0.2972 -0.1870  0.1882
    1W        W61488  14.373  10.513   8.866 -0.1218  0.2265  0.0714
    1W        W61489  13.268  23.161   1.049  0.1008 -0.0262 -0.1493
    1W        W61490  27.665   3.565   9.588  0.1169 -0.0725 -0.1999
    1W        W61491   0.983   5.539   8.043  0.0210 -0.2248 -0.0698
    1W        W61492  19.127  18.168   7.844  0.0344  0.2336 -0.0891
    1W        W61493   3.376  17.119   9.166  0.1078 -0.0929  0.0478
    1W        W61494   8.052  14.837   7.898 -0.1480 -0.2069  0.0005
    1W        W61495   7.334   0.998   2.656 -0.0166  0.0880 -0.1998
    1W        W61496   5.867   7.878   7.780 -0.0832 -0.2983 -0.2518
    1W        W61497   2.726  11.605   7.870 -0.0639  0.0622 -0.0108
    1W        W61498  18.761   7.065   1.691  0.2063 -0.0839  0.0474
    1W        W61499   2.489   9.535   8.592  0.0639  0.2559 -0.0029
    1W        W61500   5.934  23.032   7.446 -0.2132 -0.2206  0.0140
    1W        W61501  15.282   9.315   8.389 -0.1035 -0.2081 -0.2972
    1W        W61502  10.880  25.911   2.332 -0.1272 -0.1786  0.1954
    1W        W61503  22.242  22.072   7.852  0.1100 -0.1271  0.2688
    1W        W61504  27.338  17.292   8.055  0.0485 -0.0909  0.1496
    1W        W61505   9.244  22.313   7.090  0.1699  0.1696  0.5547
    1W        W61506   5.060  20.875   0.994 -0.0414  0.0249  0.0359
    1W        W61507   2.495  27.784   9.248 -0.2020  0.0238  0.2819
    1W        W61508  14.960   8.870   0.607  0.1208 -0.1002  0.0584
    1W        W61509  15.064   3.222   0.779  0.2468  0.1844 -0.1199
    1W        W61510  14.853  22.723   7.609  0.1670  0.1994 -0.1473
    1W        W61511  27.808  10.328   9.425 -0.0684  0.1253 -0.1518
    1W        W61512  28.908  20.966   8.629  0.2467  0.1592 -0.1838
    1W        W61513  21.449   0.319   0.609 -0.0510  0.2177  0.0673
    1W        W61514   5.978  25.707   2.116 -0.2256  0.0174  0.3357
    1W        W61515  10.570  10.167   7.403  0.0378 -0.0707 -0.0754
    1W        W61516  21.417  18.180   1.649  0.1686 -0.1054  0.0510
    1W        W61517  14.825   2.557   3.857 -0.1084 -0.2567 -0.0113
    1W        W61518   9.966  27.915   3.088  0.0615 -0.2765 -0.0083
    1W        W61519   4.584   1.135   2.747  0.1140  0.1962  0.4241
    1W        W61520  26.806   3.091   6.257  0.0000 -0.0883  0.0670
    1W        W61521  11.294   8.511   0.249 -0.1153 -0.0246  0.3066
    1W        W61522   1.894  13.648   0.557  0.2376 -0.1707 -0.0485
    1W        W61523  29.148  23.489   7.781  0.2381 -0.4157  0.1531
    1W        W61524   9.326  16.011   8.358  0.3531 -0.1676 -0.2862
    1W        W61525  26.068  10.157   2.652 -0.2439  0.1814 -0.3599
    1W        W61526  29.305   0.910   9.647  0.0857 -0.3339 -0.2019
    1W        W61527  23.526  14.297   2.334  0.0856  0.1463  0.4953
    1W        W61528   0.397  13.801   0.101 -0.1481  0.2198 -0.5599
    1W        W61529  15.045   4.961   2.985  0.0642 -0.2217  0.0166
    1W        W61530   0.854  19.922   9.511 -0.0624  0.2629  0.0034
    1W        W61531  18.654  24.654   7.721 -0.1516 -0.1526  0.0152
    1W        W61532  16.993  13.698   9.295  0.2225  0.1712 -0.2032
    1W        W61533  16.910  25.904   9.367 -0.3669 -0.1910 -0.0674
    1W        W61534   3.953  24.997   1.156 -0.2765  0.0289 -0.0815
    1W        W61535   7.842   5.424   0.123  0.2369  0.1812 -0.0596
    1W        W61536  11.205  20.375   2.108  0.2044 -0.1898  0.0463
    1W        W61537   7.303   0.579   0.875 -0.1290 -0.1751  0.0283
    1W        W61538  26.516  10.834   1.493  0.0078 -0.5611 -0.0064
    1W        W61539   6.357  15.455   2.446 -0.1391  0.0903  0.1444
    1W        W61540   2.241  19.065   7.578 -0.3555  0.1594  0.0713
    1W        W61541  16.185   7.870   1.162  0.3157  0.1968  0.0584
    1W        W61542   3.706  14.793   7.147 -0.0090 -0.1624 -0.0606
    1W        W61543   2.992  22.748   8.239 -0.2081  0.0794 -0.2653
    1W        W61544  25.657   3.225   7.692  0.1025 -0.1192 -0.0491
    1W        W61545  29.177  24.658   9.167 -0.0289 -0.2456 -0.0341
    1W        W61546  27.860  22.881   8.094  0.1480 -0.0673 -0.0392
    1W        W61547  15.111  22.777   0.991  0.1448 -0.0604  0.0187
    1W        W61548  15.757   2.547   1.558 -0.0411 -0.0109 -0.1023
    1W        W61549  26.663  12.088   7.222 -0.0592  0.1255 -0.0506
    1W        W61550   4.403  15.501   7.360 -0.1185 -0.0007 -0.1313
    1W        W61551   4.815  20.390   0.043 -0.0570  0.0695 -0.2492
    1W        W61552  11.214   3.479   2.045  0.2531  0.2728  0.1143
    1W        W61553  13.741  14.380   9.458 -0.2307  0.2390 -0.0051
    1W        W61554   4.672   9.117   8.696  0.2055 -0.0387 -0.1039
    1W        W61555  28.141  20.982   9.323  0.1600 -0.2243 -0.1889
    1W        W61556   6.795   7.795   7.462  0.2668  0.2168  0.1563
    1W        W61557   2.506  15.252   2.188 -0.0139 -0.0434 -0.1681
    1W        W61558   4.920  18.225   9.302  0.0584  0.4083  0.1599
    1W        W61559  26.989  13.475   0.363  0.0830  0.0103  0.0983
    1W        W61560  12.163  26.020   2.612  0.1540  0.1288  0.0122
    1W        W61561  12.277  22.287   8.587  0.1507  0.2681 -0.0074
    1W        W61562   7.583  26.639   0.841 -0.1133 -0.6700 -0.0161
    1W        W61563  20.622   3.954   6.740  0.0939 -0.1475  0.1586
    1W        W61564  26.341   6.726   0.847  0.0432  0.2607  0.1331
    1W        W61565  23.175   9.927   8.063  0.2473 -0.3015 -0.0466
    1W        W61566  10.579  22.272   8.983  0.0863  0.0718 -0.1470
    1W        W61567  28.106  18.000   2.586  0.0426  0.1207 -0.4007
    1W        W61568  23.978  19.648   2.660  0.1376  0.3170 -0.0645
    1W        W61569  27.981  18.069   1.782 -0.0479 -0.2357  0.2977
    1W        W61570  20.324  10.495   8.015 -0.1288 -0.0413  0.0982
    1W        W61571  28.546  21.830   7.891 -0.0090  0.1605  0.1294
    1W        W61572   4.274  24.710   6.548  0.4167  0.0672  0.2769
    1W        W61573  12.514   5.581   2.694 -0.3297 -0.0888  0.2461
    1W        W61574  12.970  13.983   7.693 -0.1142 -0.0466 -0.1296
    1W        W61575  18.467  26.914   2.157 -0.1712  0.0332 -0.1171
    1W        W61576  22.316  28.453   2.113  0.1852  0.3422 -0.1085
    1W        W61577   7.198   0.736   2.235  0.3409  0.3481 -0.0718
    1W        W61578  24.629  10.267   8.007 -0.2231  0.1184  0.1292
    1W        W61579  15.353   2.605   0.665  0.0107  0.1789  0.1050
    1W        W61580  27.022   4.574   1.207  0.3754 -0.1326  0.0721
    1W        W61581   7.885  15.090   2.635 -0.2653  0.2987  0.1293
    1W        W61582   1.689   6.541   9.114  0.2607 -0.0659  0.0428
    1W        W61583   3.667   9.650   6.190 -0.0244  0.1898  0.5781
    1W        W61584  22.051  26.723   2.375 -0.5759  0.0308 -0.0058
    1W        W61585  21.468  11.998   8.972  0.0730 -0.2073  0.0207
    1W        W61586  26.386  18.183   6.289 -0.1295 -0.0315 -0.2864
    1W        W61587  11.790   1.653   9.019  0.1060  0.2956 -0.1707
    1W        W61588   2.250  27.852   8.265  0.0036 -0.0014  0.0357
    1W        W61589  24.655  24.718   2.212 -0.1844  0.0329  0.1246
    1W        W61590  28.543   5.940   0.975 -0.1480  0.2390 -0.0024
    1W        W61591  24.471  29.284   2.291  0.0995  0.0785 -0.3146
    1W        W61592  22.576  19.878   2.819 -0.3484 -0.1724 -0.1945
    1W        W61593  17.027   0.611   1.105 -0.1212  0.0495 -0.0539
    1W        W61594  27.889  16.613   9.422 -0.0268 -0.1447  0.3074
    1W        W61595  20.088  22.794   8.133  0.0895 -0.3534 -0.0502
    1W        W61596  29.185  26.387   2.649 -0.1728 -0.1293 -0.4131
    1W        W61597  23.135   1.063   8.010 -0.0117 -0.0623 -0.0558
    1W        W61598  18.690  23.998   8.454  0.0855  0.2293 -0.2332
    1W        W61599  14.403   5.135   7.923 -0.0134 -0.3467 -0.1333
    1W        W61600  19.616  21.452   0.355  0.3107 -0.1135 -0.0955
    1W        W61601  24.711  23.763   3.042  0.0477 -0.1770  0.3612
    1W        W61602   2.060  17.206   2.767  0.2905 -0.1134  0.0877
    1W        W61603  20.986   0.979   8.316 -0.0600  0.0833 -0.0800
    1W        W61604   9.696   7.360   0.760  0.4793 -0.2119  0.1004
    1W        W61605  12.141  18.209   8.629  0.0016  0.1533 -0.0638
    1W        W61606   5.581  24.702   1.472  0.1738  0.2006  0.4431
    1W        W61607  26.608  11.621   1.092 -0.1348 -0.1926  0.2701
    1W        W61608  15.570   4.100   7.549 -0.0904  0.1126 -0.1044
    1W        W61609  23.771   2.406   0.773 -0.0713  0.0786 -0.0357
    1W        W61610  21.331  21.738   8.055  0.2073 -0.2015 -0.1562
    1W        W61611   3.546  13.050   0.215  0.2370  0.0436 -0.3548
    1W        W61612  10.787  27.996   1.598 -0.3927  0.0068 -0.0826
    1W        W61613   5.709   6.657   9.242 -0.0235  0.1416 -0.0939
    1W        W61614  23.841  20.442   2.687  0.0922  0.0349  0.0555
    1W        W61615   4.284  17.995   6.960  0.0845 -0.1994  0.0808
    1W        W61616   6.331   0.858   1.317  0.0612  0.0045  0.1297
    1W        W61617  15.348  24.144   6.846  0.2167  0.0519 -0.1123
    1W        W61618  20.140  26.468   1.037 -0.0481 -0.0302 -0.0502
    1W        W61619  15.990  10.284   1.572  0.0866 -0.1236 -0.0197
    1W        W61620   4.694  11.264   2.638  0.0277 -0.0568 -0.0178
    1W        W61621   5.361   8.780   7.256  0.2979  0.0418  0.0520
    1W        W61622   2.499  10.977   1.847  0.1959 -0.0631  0.1270
    1W        W61623  22.893  24.119   1.017  0.0554 -0.0304 -0.1276
    1W        W61624   6.625  20.609   0.151  0.2001  0.1282  0.0181
    1W        W61625  16.948   4.831   1.221  0.0221 -0.2017 -0.0896
    1W        W61626  21.796   8.985   0.436  0.0115 -0.2855  0.1211
    1W        W61627  20.116   6.201   1.616  0.0284  0.0103  0.1171
    1W        W61628  20.991   8.187   7.899 -0.1787 -0.2944 -0.2621
    1W        W61629   5.362  14.058   0.108  0.2618  0.0791 -0.0689
    1W        W61630  26.057   0.969   7.983  0.0500 -0.0319  0.3596
    1W        W61631  28.991  24.417   1.242 -0.2469 -0.3947  0.0821
    1W        W61632  19.095  25.160   8.694  0.1589 -0.1192 -0.1229
    1W        W61633  18.261  28.529   0.604 -0.1924 -0.2147 -0.1911
    1W        W61634  26.948  25.875   0.351  0.0702  0.1410 -0.1026
    1W        W61635  20.327   0.022   2.918  0.2334  0.2909  0.0051
    1W        W61636   7.432  18.409   8.739 -0.2657 -0.0298 -0.2298
    1W        W61637  27.033   3.213   9.547  0.2060  0.0262  0.0696
    1W        W61638   9.645  15.647   1.651 -0.0541  0.1270  0.0160
    1W        W61639  20.340  15.716   7.511  0.0436  0.0511  0.1184
    1W        W61640  19.898   7.794   6.743 -0.0512 -0.2957 -0.0993
    1W        W61641   8.524   2.165   0.583 -0.1004 -0.1384 -0.2555
    1W        W61642  18.991  13.925   7.333 -0.2039  0.1800 -0.0128
    1W        W61643  20.030  11.162   0.639  0.0449  0.3194  0.0288
    1W        W61644  14.494   1.608   9.383 -0.0315  0.4084  0.0064
    1W        W61645  25.030   7.890   2.167 -0.0136 -0.0607  0.1722
    1W        W61646   2.299  18.485   1.605  0.3154 -0.1763  0.0782
    1W        W61647   0.852  28.046   2.756  0.0468 -0.1973  0.1272
    1W        W61648  25.288  10.805   6.809 -0.0611 -0.0235 -0.0664
    1W        W61649   2.997  24.650   8.588 -0.2406 -0.0470  0.0275
    1W        W61650   1.670  22.543   7.743 -0.0838  0.1878 -0.0241
    1W        W61651   0.083  26.809   1.689  0.1034  0.1324  0.0188
    1W        W61652   4.220  14.870   2.341  0.1260 -0.0723  0.0394
    1W        W61653   3.893  10.027   3.529 -0.3250 -0.0706 -0.0735
    1W        W61654  27.414  17.778   7.210  0.3670 -0.0206  0.3438
    1W        W61655  24.577   6.336   1.523 -0.2551  0.1837 -0.0155
    1W        W61656   5.532   0.329   7.908 -0.0865  0.1776 -0.0815
    1W        W61657  28.088   8.826   9.442  0.0655  0.2091 -0.0396
    1W        W61658  23.450   6.108   7.549  0.1406  0.0146  0.1993
    1W        W61659  28.869  28.950   2.500 -0.3719  0.1489 -0.2904
    1W        W61660  22.754  26.023   9.482  0.4495 -0.3041 -0.2239
    1W        W61661   7.591  12.980   7.309  0.1600  0.2337 -0.2178
    1W        W61662  28.127  13.145   6.584  0.0057 -0.3075 -0.1710
    1W        W61663   0.628   6.836   7.501 -0.3196  0.1298  0.3922
    1W        W61664   0.531  12.993   0.351 -0.0207  0.0390 -0.2441
    1W        W61665  26.049   0.605   8.764 -0.1721 -0.0211 -0.2331
    1W        W61666   4.816  22.384   6.713 -0.3748 -0.1273  0.4052
    1W        W61667  13.120  28.674   2.945 -0.1022 -0.0967 -0.1663
    1W        W61668  25.829   3.913   1.462  0.0434  0.3683 -0.1513
    1W        W61669   1.434  15.850   7.545  0.1298 -0.1699  0.0975
    1W        W61670   4.694  26.458   9.177 -0.1294  0.0398  0.0016
    1W        W61671  27.179   0.792   0.981 -0.1056 -0.0560 -0.0249
    1W        W61672  27.340  27.112   2.133  0.1395 -0.1405 -0.3954
    1W        W61673  25.005   6.947   2.313  0.1070 -0.2886 -0.3321
    1W        W61674  21.048   0.346   0.962  0.2116  0.2239  0.2137
    1W        W61675  22.384  24.502   2.943  0.1008  0.3585  0.2174
    1W        W61676  25.805   6.049   7.078 -0.1652  0.4989  0.0861
    1W        W61677  13.722  14.667   1.648  0.0972 -0.0553  0.1332
    1W        W61678   1.036  23.788   8.406  0.0245  0.0660 -0.1471
    1W        W61679  15.178  21.925   9.204  0.0930  0.0604  0.1022
    1W        W61680  12.073  22.502   7.420  0.0198 -0.0870  0.1388
    1W        W61681   4.862  13.049   9.170  0.1276 -0.0764  0.1598
    1W        W61682  13.630  28.540   0.121  0.1964 -0.1259 -0.1860
    1W        W61683   4.722  25.767   6.582 -0.3895 -0.1836  0.2923
    1W        W61684   1.312   8.550   8.070 -0.1649 -0.1923 -0.2764
    1W        W61685  26.779   6.969   8.542  0.4641 -0.2642  0.2153
    1W        W61686   5.337  10.036   9.572  0.2226  0.1983  0.0998
    1W        W61687  15.061  14.037   1.741 -0.0536 -0.1548 -0.0135
    1W        W61688  14.455   5.720   2.386 -0.0168 -0.0594 -0.1852
    1W        W61689  26.132  20.604   7.569  0.0391  0.1921  0.0641
    1W        W61690   2.175  17.884   0.867 -0.1089 -0.1016 -0.1714
    1W        W61691  23.978  21.252   0.057  0.1732 -0.2738  0.2038
    1W        W61692  23.235  19.585   9.316 -0.0256  0.0653  0.0816
    1W        W61693  15.508  26.334   3.300 -0.3148  0.1053  0.2133
    1W        W61694  24.413  27.764   2.500 -0.2133 -0.1482  0.3113
    1W        W61695  12.439  25.911   1.544  0.2545  0.0117  0.1691
    1W        W61696  23.128  13.029   0.476 -0.0860 -0.3743 -0.4631
    1W        W61697  19.410  13.029   6.885  0.1309 -0.0852  0.1017
    1W        W61698  22.087   2.182   1.296 -0.4280 -0.3785 -0.0358
    1W        W61699  18.278  20.527   7.372  0.1759 -0.1232  0.0118
    1W        W61700   6.700  26.393   7.973  0.0055  0.2139 -0.0705
    1W        W61701  27.668  27.202   8.869 -0.3911  0.0888  0.4047
    1W        W61702  18.354  11.704   0.724  0.0227  0.0451 -0.0954
    1W        W61703  23.325   2.219   6.412  0.2689  0.0252 -0.1278
    1W        W61704  25.732   5.329   2.042  0.1493  0.1928 -0.1301
    1W        W61705  11.609   0.598   8.257  0.1936 -0.2182  0.0621
    1W        W61706   2.178   4.077   6.151 -0.1750  0.2427 -0.0034
    1W        W61707   8.243  24.378   6.271  0.2778 -0.2307  0.1770
    1W        W61708  22.925   5.218   7.481  0.0551  0.4181 -0.1370
    1W        W61709  14.464   4.506   2.482 -0.0213 -0.0216  0.0666
    1W        W61710   6.585   0.433   2.729  0.1148 -0.1665  0.0045
    1W        W61711  21.240   4.343   7.327  0.2123 -0.0694  0.0837
    1W        W61712  27.896  18.890   6.928  0.1214 -0.0936  0.1191
    1W        W61713   5.242  10.972   2.288 -0.5458  0.1271 -0.2795
    1W        W61714   5.708   6.339   7.900 -0.1010 -0.1295 -0.3427
    1W        W61715   4.239  12.717   7.458  0.3033 -0.2603 -0.1062
    1W        W61716  29.130  26.435   0.853  0.2654 -0.0511 -0.4362
    1W        W61717   0.217   1.391   2.481 -0.1354  0.1053 -0.0595
    1W        W61718   6.137  15.098   0.437 -0.0998  0.0526  0.1469
    1W        W61719  10.488  17.266   1.366 -0.3006  0.0624  0.0891
    1W        W61720  29.080  18.394   1.740 -0.2895  0.0684  0.1569
    1W        W61721  29.351   4.265   7.910 -0.2234 -0.0232  0.2813
    1W        W61722  27.909   7.116   7.027 -0.0571 -0.2161  0.0703
    1W        W61723  25.769  26.053   6.397 -0.1086  0.1682  0.1584
    1W        W61724  23.068  20.374   1.033 -0.2014 -0.0785 -0.1984
    1W        W61725  13.026  17.119   8.275  0.0390 -0.1761 -0.0563
    1W        W61726  26.546  28.948   0.530 -0.0977  0.3341 -0.2064
    1W        W61727  14.581  10.889   7.668 -0.2482  0.1511 -0.1224
    1W        W61728   2.894   0.382   0.604  0.3442 -0.0311  0.2807
    1W        W61729  15.742   6.272   2.601  0.2322  0.0682 -0.2801
    1W        W61730  14.764   6.179   8.437 -0.2647  0.1999 -0.2970
    1W        W61731   5.812   3.728   8.879  0.0539  0.0687 -0.1430
    1W        W61732  21.166  12.865   7.686 -0.1733  0.1241  0.1102
    1W        W61733  21.055  20.787   3.385 -0.2211 -0.1483 -0.2850
    1W        W61734   5.043   4.746   8.280  0.0856 -0.0873 -0.3686
    1W        W61735   6.575   7.559   6.758  0.1248  0.0347  0.1257
    1W        W61736   3.220   5.549   1.276  0.0180 -0.0295 -0.0361
    1W        W61737  27.551   0.578   2.387  0.2259 -0.1417  0.0488
    1W        W61738  25.171  22.757   8.987 -0.1133  0.0185 -0.0273
    1W        W61739  24.713  28.407   1.186  0.0771 -0.0504 -0.0963
    1W        W61740   1.642  11.100   9.343  0.1659  0.0435  0.0460
    1W        W61741  15.926  14.600   1.095  0.0515 -0.1586  0.0704
    1W        W61742  11.684  27.583   0.549 -0.1160  0.0739  0.0086
    1W        W61743  10.431  28.022   7.781 -0.2136  0.1188  0.1960
    1W        W61744  12.072  22.716   9.571  0.0817  0.0705 -0.3037
    1W        W61745  21.401  11.021   0.839  0.0302 -0.1775 -0.1599
    1W        W61746  20.565  22.099   7.811 -0.0288 -0.0044  0.2429
    1W        W61747   5.965   8.397   8.589  0.2168  0.1825  0.0544
    1W        W61748  19.703  19.518   8.784 -0.1470  0.1244  0.5091
    1W        W61749  17.124  21.537   7.591  0.2514 -0.1095  0.0025
    1W        W61750   6.513  16.131   9.564  0.1135 -0.0537  0.1483
    1W        W61751   7.199  28.566   3.348  0.4665  0.0288  0.2558
    1W        W61752  25.567   2.758   9.139 -0.0688  0.4023  0.1631
    1W        W61753  20.287  13.372   8.542 -0.1114  0.1717  0.1253
    1W        W61754  18.220  13.386   1.438  0.3901  0.3875 -0.3610
    1W        W61755  24.346  21.890   3.350  0.0147 -0.3883 -0.0527
    1W        W61756   7.878  14.366   7.124  0.3058  0.1790 -0.1393
    1W        W61757  14.790  25.313   8.523  0.0585 -0.0151  0.1294
    1W        W61758  11.198  12.447   8.524  0.3276  0.1636 -0.0220
    1W        W61759  18.275   5.719   7.326 -0.2886  0.1294  0.2135
    1W        W61760   0.472   6.055   7.711 -0.1348 -0.0347  0.0526
    1W        W61761   2.542  21.543   7.363  0.0256 -0.2944  0.0025
    1W        W61762  23.979   6.444   8.413 -0.1880  0.0236  0.1394
    1W        W61763  28.789  13.550   8.982  0.0183 -0.1982  0.0146
    1W        W61764  16.402  26.592   8.903 -0.0609  0.2189 -0.0437
    1W        W61765   4.173  23.776   1.340 -0.0108  0.0642 -0.2357
    1W        W61766  16.738  11.955   7.947  0.0470 -0.2260 -0.0063
    1W        W61767  13.315  22.061   2.699 -0.2534  0.0867 -0.2817
    1W        W61768  20.144   0.109   0.777 -0.0451  0.4032 -0.0997
    1W        W61769  25.774  17.714   6.979 -0.0411 -0.0635  0.1740
    1W        W61770  27.666  27.723   8.867 -0.1080 -0.0015 -0.0161
    1W        W61771   0.327   6.161   6.975 -0.2661  0.3305 -0.4562
    1W        W61772  22.403  10.338   7.711  0.0256 -0.0079  0.1417
    1W        W61773  22.306  29.149   1.218 -0.2575 -0.2579  0.0625
    1W        W61774   4.650   6.001   8.430 -0.0257  0.1234 -0.5292
    1W        W61775  10.626  17.796   9.584 -0.0885 -0.1082  0.3235
    1W        W61776  10.226  24.766   1.194 -0.2013  0.1396  0.0989
    1W        W61777   6.324  20.724   0.527  0.3171 -0.3759  0.0456
    1W        W61778  23.263   5.870   7.931 -0.0261 -0.0913 -0.1281
    1W        W61779  13.833  14.967   0.715  0.1444  0.2643  0.2031
    1W        W61780  22.974  28.453   8.478  0.0684  0.3002 -0.1513
    1W        W61781  17.883  20.711   8.402  0.2618  0.2737  0.1902
    1W        W61782   2.790   4.386   7.476 -0.2671  0.0555  0.0476
    1W        W61783  27.212   1.595   1.973 -0.3484  0.3868 -0.0807
    1W        W61784  28.214  27.264   8.143  0.0220  0.1527  0.0677
    1W        W61785  12.605  22.644   0.571 -0.1130 -0.0006  0.1882
    1W        W61786  10.377   1.455   3.090  0.3176  0.1757 -0.0806
    1W        W61787   4.530   9.616   9.037  0.0607  0.0363 -0.0974
    1W        W61788  24.952  12.229   9.205 -0.2694  0.2242 -0.2245
    1W        W61789   5.066  10.035   2.352 -0.1970  0.0519 -0.1771
    1W        W61790   2.099   3.760   8.426 -0.2778  0.1241 -0.0149
    1W        W61791   7.896   1.871   8.929  0.0923  0.0739 -0.2557
    1W        W61792   0.623  27.105   7.309 -0.2665 -0.1411  0.4986
    1W        W61793   0.417  28.880   2.602  0.2215  0.3243  0.3854
    1W        W61794   0.807  10.042   8.677 -0.0797  0.2704  0.0364
    1W        W61795   6.172   8.116   1.611  0.2469 -0.1572  0.2299
    1W        W61796   4.093  14.940   6.786  0.0386  0.0221 -0.1418
    1W        W61797   4.939   8.400   1.214 -0.2028 -0.1193 -0.2677
    1W        W61798  25.139  21.326   8.659  0.0805 -0.2511 -0.1961
    1W        W61799   2.797  15.515   8.440  0.2107 -0.1935 -0.0556
    1W        W61800  17.856  13.971   2.223  0.2944 -0.0227 -0.0677
    1W        W61801  18.942   4.655   1.423  0.2822  0.0179 -0.0704
    1W        W61802  21.689  10.599   8.859 -0.1763  0.1316  0.0147
    1W        W61803   7.746  11.016   9.387  0.0168  0.0708  0.1139
    1W        W61804  13.876  18.404   6.608 -0.1387 -0.2549  0.0994
    1W        W61805  22.289  22.919   7.225  0.0674  0.0881 -0.1166
    1W        W61806   3.811   4.195   0.727  0.1624 -0.0916 -0.3307
    1W        W61807   2.466  19.764   8.914 -0.1470  0.0239  0.2033
    1W        W61808  18.118   5.449   1.793 -0.0227  0.1690  0.0518
    1W        W61809  14.836   9.661   1.179 -0.0465 -0.1663  0.2384
    1W        W61810  18.426   3.824   7.490 -0.0453  0.2243 -0.1284
    1W        W61811  25.765  12.572   7.337 -0.0195 -0.1519 -0.0455
    1W        W61812  14.812   9.355   0.786 -0.1419  0.1382 -0.0679
    1W        W61813   3.192  28.131   0.040 -0.1261 -0.0963  0.2147
    1W        W61814  10.625   4.580   1.257 -0.2500  0.1072  0.2587
    1W        W61815  21.059  27.569   7.547 -0.0105  0.0584  0.1032
    1W        W61816  16.328  22.115   6.288  0.1443 -0.1434 -0.2641
    1W        W61817  22.491  19.810   1.579 -0.4059 -0.2818  0.2559
    1W        W61818  25.572   0.770   8.794  0.0312  0.1420 -0.5889
    1W        W61819  14.948   2.289   3.377 -0.1096  0.1520  0.0425
    1W        W61820   0.393  15.743   0.182  0.1231 -0.0290 -0.1385
    1W        W61821   1.488  25.247   0.440  0.0925 -0.0059  0.0202
    1W        W61822  19.663  12.781   1.772 -0.1437 -0.1050 -0.3560
    1W        W61823   9.319  28.222   7.431 -0.1115 -0.0531  0.4569
    1W        W61824  20.553  26.229   0.752 -0.1341 -0.1618  0.2360
    1W        W61825   0.445  25.512   1.204 -0.0023  0.0349 -0.1049
    1W        W61826   2.665   7.421   8.874 -0.0325  0.0094 -0.1944
    1W        W61827  22.678   7.687   8.590 -0.0307  0.0046 -0.0955
    1W        W61828  20.261  10.720   9.030 -0.2334 -0.3201 -0.0194
    1W        W61829  17.845  28.437   7.758  0.2256  0.1068 -0.0703
    1W        W61830  23.532  12.186   2.175 -0.0880 -0.1057  0.1886
    1W        W61831  10.449  25.991   8.253 -0.0074  0.2881 -0.2164
    1W        W61832  27.833  17.895   6.945  0.2953 -0.1386 -0.0332
    1W        W61833  11.822   0.958   0.390 -0.0748  0.1121 -0.3044
    1W        W61834  21.037   8.392   9.667  0.2017 -0.1187 -0.1251
    1W        W61835  16.082  23.250   8.896 -0.3900 -0.1855 -0.0827
    1W        W61836  20.596   2.652   7.585 -0.2482  0.0318 -0.1654
    1W        W61837  13.081  24.437   8.531 -0.1044  0.0148  0.2424
    1W        W61838  15.653  16.217   0.010 -0.2547  0.1973  0.0472
    1W        W61839   0.121   3.778   7.791 -0.2916 -0.3268 -0.0018
    1W        W61840   0.282  24.846   0.331 -0.3249 -0.0706  0.1058
    1W        W61841  22.912   6.168   7.168 -0.0431  0.0669  0.0203
    1W        W61842  18.584  23.866   0.107  0.1327  0.0275 -0.2259
    1W        W61843   0.296  10.143   8.003  0.2845  0.0719 -0.0263
    1W        W61844  26.531  14.095   2.471  0.1539 -0.0562 -0.1228
    1W        W61845  24.517  16.567   6.600  0.1522  0.1276  0.0975
    1W        W61846   5.527  12.708   7.297  0.2389  0.5886 -0.2541
    1W        W61847  10.390   4.224   3.009  0.3057 -0.1526 -0.0930
    1W        W61848  28.075  28.422   1.568  0.1059 -0.1673  0.0975
    1W        W61849  16.682  12.185   9.440 -0.2198 -0.1734  0.2629
    1W        W61850   8.349   0.592   8.686  0.2899 -0.2627  0.0254
    1W        W61851  20.680  25.858   9.267  0.0778  0.3633 -0.3944
    1W        W61852  19.512   0.706   0.528 -0.1500 -0.0231  0.0892
    1W        W61853  13.193  13.803   0.605 -0.2762  0.0242  0.1555
    1W        W61854  26.603  17.835   9.449 -0.0074  0.0698  0.1192
    1W        W61855  22.383   2.066   7.859  0.0838 -0.1030 -0.0904
    1W        W61856   2.412  14.395   7.131  0.1263  0.2388 -0.0038
    1W        W61857   1.158  15.155   2.223  0.1151 -0.0016  0.0786
    1W        W61858  25.822  15.188   9.388  0.0711  0.1969 -0.0756
    1W        W61859  10.839  22.060   0.901  0.3050 -0.1871  0.1495
    1W        W61860  28.850  21.065   2.197  0.2702  0.0782  0.2112
    1W        W61861   2.192   0.972   1.745 -0.1068  0.0744 -0.0363
    1W        W61862  20.855  25.172   3.698 -0.1101 -0.1453 -0.0094
    1W        W61863   0.724  11.365   9.414 -0.2209 -0.2655 -0.0518
    1W        W61864   1.477   5.505   9.214 -0.0467 -0.1584 -0.3497
    1W        W61865  14.418  28.314   2.390 -0.1754  0.2845  0.2248
    1W        W61866   5.661   2.958   1.391  0.1356  0.0894 -0.2233
    1W        W61867  16.727  16.895   8.877 -0.0902  0.0704 -0.0473
    1W        W61868  16.550  23.230   3.437 -0.0434  0.0510 -0.1846
    1W        W61869  10.462  21.079   0.563  0.0676 -0.4130 -0.0937
    1W        W61870  24.790   0.905   8.733  0.1013 -0.4668 -0.0028
    1W        W61871  25.312  15.832   9.075 -0.1757 -0.2095 -0.0369
    1W        W61872   8.706  16.529   0.473  0.1881  0.0231 -0.0928
    1W        W61873  25.368  12.356   7.596 -0.0506 -0.0925  0.2530
    1W        W61874   1.376  27.159   9.225  0.0829 -0.0261 -0.0706
    1W        W61875  21.584   8.574   0.658 -0.2617  0.2047 -0.0333
    1W        W61876   9.920  15.574   7.348  0.0099  0.0775  0.1209
    1W        W61877  16.407   3.034   1.085  0.1411  0.0699 -0.0350
    1W        W61878  12.812   6.499   2.446  0.0639 -0.1098 -0.0252
    1WF      WF61879  14.422  22.658   8.822  0.0010  0.1142 -0.1064
    1WF      WF61880   0.951   8.053   8.300  0.1870  0.0094 -0.1661
    1WF      WF61881   7.736  21.682   9.317  0.1398 -0.0843  0.0825
    1WF      WF61882   9.537   8.849   8.316  0.2922  0.2260 -0.1096
    1WF      WF61883   5.960   5.516   8.517  0.1186  0.2032  0.1387
    1WF      WF61884  15.505   6.054   8.590  0.0779 -0.1212 -0.0951
    1WF      WF61885  11.601   3.161   1.266  0.1704  0.0445 -0.4736
    1WF      WF61886  26.886  28.625   8.443 -0.1451  0.3486 -0.0723
    1WF      WF61887  25.655  15.919   0.827 -0.1663  0.0499 -0.1910
    1WF      WF61888  23.663  16.031   9.014  0.0580  0.1231  0.0310
    1WF      WF61889  24.778   9.587   1.591  0.1536 -0.1728  0.1760
    1WF      WF61890  21.341   6.339   0.479 -0.0475  0.0043 -0.2609
    1WF      WF61891  12.973  11.925   9.103  0.2110  0.1680 -0.0601
    1WF      WF61892  29.076  14.115   8.598  0.0803 -0.0360 -0.1454
    1WF      WF61893  23.744  20.524   0.932 -0.0515  0.0480 -0.0005
    1WF      WF61894  21.533   1.037   0.213  0.2042 -0.1261  0.2380
    1WF      WF61895  14.959  21.381   8.090  0.1226  0.0187 -0.1161
    1WF      WF61896  26.124   7.265   0.059 -0.2645 -0.0875 -0.0235
    1WF      WF61897   6.103  17.150   7.902  0.2027 -0.0726  0.1867
    1WF      WF61898   6.914   6.814   2.021  0.0585  0.0236 -0.0378
    1WF      WF61899   3.993  24.045   8.445 -0.0621  0.0564  0.0070
    1WF      WF61900  23.527   0.598   8.104  0.1920 -0.0422  0.5880
    1WF      WF61901   2.597   2.179   8.165 -0.0609  0.0694  0.0190
    1WF      WF61902   1.881   8.040   6.363 -0.1404  0.2391 -0.2552
    1WF      WF61903  26.357   1.345   8.857  0.1599  0.1483 -0.1070
    1WF      WF61904   9.385  28.354   2.517 -0.3672  0.0197 -0.2844
    1WF      WF61905   3.039  23.950   2.065  0.1272  0.0421  0.1359
    1WF      WF61906   3.183  20.845   1.249 -0.0576 -0.0458  0.0613
    1WF      WF61907  25.737  22.374   2.041 -0.0591  0.1318  0.3089
    1WF      WF61908  28.271  17.134   7.460  0.1598 -0.1047 -0.2813
    1WF      WF61909  16.055   7.472   0.140  0.3995  0.0938 -0.3485
    1WF      WF61910   1.204   1.200   6.808  0.2370  0.0749  0.1415
    1WF      WF61911  21.764  14.345   7.540 -0.0440 -0.1657  0.1198
    1WF      WF61912  15.050   1.905   9.644 -0.1637 -0.0400  0.2220
    1WF      WF61913  19.766   2.998   9.502  0.1804 -0.1845  0.1008
    1WF      WF61914   9.000  26.582   1.537 -0.0453  0.0356 -0.0006
    1WF      WF61915  28.605  28.173   7.582 -0.0456 -0.2321  0.1505
    1WF      WF61916   9.152  22.457   2.459  0.3698  0.0913  0.3880
    1WF      WF61917  10.631   1.625   1.508  0.0333  0.3553  0.1048
    1WF      WF61918  27.955   1.122   2.511  0.0119 -0.2313 -0.0199
    1WF      WF61919  23.651   6.843   0.993  0.1432 -0.0917  0.0947
    1WF      WF61920  21.628   1.999   7.159 -0.1734 -0.3148  0.3378
    1WF      WF61921  13.802   3.718   9.296 -0.1158 -0.0154  0.1862
    1WF      WF61922   9.108  22.684   8.005  0.1057 -0.1618 -0.1799
    1WF      WF61923   7.267   9.989   2.908 -0.0859 -0.1282 -0.0109
    1WF      WF61924  18.402  17.530   8.770  0.0439 -0.2313 -0.2446
    1WF      WF61925   0.028  17.176   9.168  0.0543  0.1079 -0.1181
    1WF      WF61926  24.537   6.245   2.976  0.2126  0.0700  0.1211
    1WF      WF61927  20.938  11.008   8.586 -0.0011  0.2574 -0.0608
    1WF      WF61928  21.138  28.002   0.746  0.1030 -0.0033 -0.1232
    1WF      WF61929   2.278  25.301   1.018  0.1863 -0.0130 -0.1145
    1WF      WF61930  23.226  22.406   2.455 -0.3705 -0.3430  0.3274
    1WF      WF61931  19.258  10.692   8.607  0.0492 -0.2893 -0.3435
    1WF      WF61932   7.296   0.989   9.079  0.1126 -0.1468 -0.0179
    1WF      WF61933   8.704  13.479   0.085  0.2744  0.1211 -0.1522
    1WF      WF61934   2.433  26.880   1.399  0.1367  0.1941  0.1633
    1WF      WF61935  28.398  27.775   0.167  0.1077  0.0529 -0.1201
    1WF      WF61936  21.938  27.727   9.513 -0.0370 -0.1845  0.3000
    1WF      WF61937  15.085  28.781   1.367  0.1769 -0.0332 -0.2902
    1WF      WF61938   7.683   0.721   9.249  0.2263  0.2158  0.1393
    1WF      WF61939  20.793  15.721   9.180 -0.2054  0.1448 -0.0723
    1WF      WF61940  11.187  13.469   0.846 -0.0785 -0.1470 -0.1603
    1WF      WF61941  19.110  17.890   0.069  0.0059 -0.3334 -0.2010
    1WF      WF61942  15.824  17.798   8.962  0.0754 -0.4291 -0.0905
    1WF      WF61943  28.690   4.120   6.511 -0.2371 -0.2931 -0.0679
    1WF      WF61944   7.820  21.733   0.115  0.2253 -0.1358 -0.1173
    1WF      WF61945   3.060  17.031   1.759 -0.5263 -0.0873 -0.2036
    1WF      WF61946  13.412  16.375   1.025  0.2974  0.2007 -0.1457
    1WF      WF61947  25.574  16.474   9.488 -0.2198  0.1741  0.0762
    1WF      WF61948  17.358  29.271   9.571  0.0043 -0.2548 -0.1213
    1WF      WF61949  26.303  27.936   2.215 -0.1285 -0.1177  0.2487
    1WF      WF61950  11.573   5.987   7.486 -0.1610  0.0901  0.3475
    1WF      WF61951   1.134   6.028   1.238  0.2313 -0.2082  0.0262
    1WF      WF61952   5.923  19.562   8.312 -0.1079  0.1388 -0.1359
    1WF      WF61953   4.122  12.261   9.336 -0.0821 -0.0491  0.1436
    1WF      WF61954  22.269  15.908   8.093 -0.2347  0.0888 -0.1148
    1WF      WF61955  11.548  28.474   1.448  0.1220  0.1659 -0.0752
    1WF      WF61956  26.220  18.091   8.482  0.0133  0.0458  0.1980
    1WF      WF61957   5.945   1.490   9.488 -0.0657  0.1416  0.1077
    1WF      WF61958   7.856   0.348   9.559 -0.0419  0.0513 -0.1003
    1WF      WF61959  22.445   0.328   6.051 -0.0500 -0.1235  0.0390
    1WF      WF61960  22.037  16.363   8.267  0.1379 -0.2404 -0.2579
    1WF      WF61961   6.957  22.642   8.917  0.0589  0.2032 -0.0724
    1WF      WF61962   5.599  26.465   9.686  0.0483  0.1553  0.0533
    1WF      WF61963  22.832  10.664   9.265 -0.2943 -0.0384 -0.1253
    1WF      WF61964  13.642   5.535   0.338 -0.0434 -0.4372  0.1256
    1WF      WF61965   2.024   6.477   8.215  0.3460 -0.1281 -0.1592
    1WF      WF61966  14.101  27.696   0.585  0.3173 -0.0006  0.1643
    1WF      WF61967  26.545  21.467   7.045  0.0002  0.1274  0.1872
    1WF      WF61968  16.799  16.110   8.467  0.1237  0.2367 -0.0431
    1WF      WF61969  27.466   2.496   8.045  0.1315  0.0069  0.2578
    1WF      WF61970  23.348  15.656   8.718 -0.1206 -0.1140  0.0502
    1WF      WF61971   9.487   3.192   8.969 -0.0170  0.1367  0.0081
    1WF      WF61972  13.565  24.344   2.019  0.1262  0.2515  0.2590
    1WF      WF61973  15.387  20.948   8.787  0.2135 -0.1308 -0.2747
    1WF      WF61974  24.304   1.184   6.643 -0.0212  0.0089  0.2573
    1WF      WF61975   8.905  17.339   0.499  0.2428 -0.0244 -0.1342
    1WF      WF61976  23.670  10.562   6.823  0.1291  0.0936  0.1146
    1WF      WF61977  16.193  12.119   9.093 -0.3086 -0.1230  0.1912
    1WF      WF61978  16.146  25.383   8.894 -0.2060 -0.0720  0.2272
    1WF      WF61979   1.491  19.014   8.138 -0.0988  0.1118  0.0370
    1WF      WF61980   3.546  27.589   8.361 -0.0888  0.2081  0.1066
    1WF      WF61981  20.374  21.271   9.354  0.2340 -0.2690  0.0638
    1WF      WF61982   0.429  21.265   1.156 -0.2173 -0.0302  0.0197
    1WF      WF61983  26.368  11.669   8.970 -0.1891 -0.1344 -0.1889
    1WF      WF61984  19.052  29.257   1.483  0.5539  0.0256  0.2503
    1WF      WF61985  25.059   3.041   8.629  0.0379 -0.0450  0.2583
    1WF      WF61986  23.579  15.389   9.681 -0.1320  0.1040 -0.3313
    1WF      WF61987   6.478  17.449   8.048 -0.0583  0.0258  0.0226
    1WF      WF61988   0.042  18.840   8.422 -0.1698  0.1048 -0.3337
    1WF      WF61989  14.326  23.465   9.273 -0.0459  0.1680  0.0427
    1WF      WF61990   5.656  27.854   6.567  0.0192  0.1219  0.0053
    1WF      WF61991  26.349  14.944   8.051 -0.0741 -0.3200  0.1007
    1WF      WF61992   7.285   6.525   1.863 -0.2543 -0.0628  0.0107
    1WF      WF61993  25.781  17.907   8.599  0.0045  0.0172 -0.2020
    1WF      WF61994  15.077   6.147   8.939 -0.1845  0.1239  0.0439
    1WF      WF61995   6.718  20.272   1.737  0.1799 -0.0996  0.1401
    1WF      WF61996   8.396   6.220   2.984 -0.3354  0.0104 -0.2133
    1WF      WF61997  22.725   1.984   1.594 -0.1428  0.1407 -0.0365
    1WF      WF61998   0.484   2.282   7.672  0.0359  0.1139 -0.1952
    1WF      WF61999  16.696  20.756   8.768 -0.1006 -0.1780 -0.0192
    1WF      WF62000  28.362   4.430   6.722  0.2779 -0.0903 -0.2850
    1WF      WF62001  12.589  27.427   0.286 -0.0813 -0.0730 -0.1129
    1WF      WF62002  18.530  17.967   1.230  0.2180 -0.1880 -0.3123
    1WF      WF62003   5.772   0.293   0.256  0.4282 -0.3759  0.0415
    1WF      WF62004  21.210   9.072   0.736 -0.0942  0.0632  0.0853
    1WF      WF62005   0.372  21.590   7.730 -0.1175 -0.3078  0.0606
    1WF      WF62006  16.180  27.429   0.070  0.1401 -0.0946  0.2003
    1WF      WF62007  28.385   6.746   7.330 -0.0598 -0.1179  0.2192
    1WF      WF62008  11.074  21.990   9.429  0.0593  0.0797 -0.1086
    1WF      WF62009  19.115   6.090   9.470  0.1688 -0.1177 -0.1063
    1WF      WF62010  15.035  21.154   8.502  0.0416 -0.2551 -0.2609
    1WF      WF62011  10.824  25.299   2.866  0.0506  0.0658  0.1761
    1WF      WF62012  29.142  27.393   8.532 -0.3448 -0.0639 -0.1443
    1WF      WF62013   4.777  18.350   7.046  0.1960 -0.0757  0.0205
    1WF      WF62014  15.501   2.501   8.315 -0.4030  0.1749  0.1052
    1WF      WF62015  21.120   3.977   8.297  0.0400  0.2395  0.3536
    1WF      WF62016  10.177  13.599   8.560  0.1479  0.0890 -0.1441
    1WF      WF62017   4.291  11.010   9.174  0.1536  0.1695 -0.2592
    1WF      WF62018   3.698  22.912   1.027 -0.0169  0.1123  0.0555
    1WF      WF62019   7.192   8.658   9.412  0.1217 -0.0514 -0.3350
    1WF      WF62020  15.869  25.183   8.498 -0.3735  0.0489  0.1582
    1WF      WF62021   4.718   8.320   7.899 -0.1861 -0.1943 -0.0219
    1WF      WF62022   7.540  18.623   7.875 -0.0117  0.3431 -0.0055
    1WF      WF62023  25.698  16.224   2.083  0.2181  0.1316 -0.1811
    1WF      WF62024  26.911  16.057   5.935  0.1987 -0.0488  0.1500
    1WF      WF62025  20.934  18.882   8.701  0.0455 -0.1854 -0.3411
    1WF      WF62026  14.072   7.231   8.788 -0.3655 -0.2435 -0.0697
    1WF      WF62027  19.653   9.355   0.273 -0.0561 -0.2139  0.0611
    1WF      WF62028  15.672   4.735   2.810 -0.1061  0.2148 -0.1159
    1WF      WF62029  20.077   2.448   2.167  0.1395 -0.0967  0.1214
    1WF      WF62030   1.707  14.754   0.506  0.1373  0.1731  0.0179
    1WF      WF62031  16.312  24.351   7.013 -0.3362 -0.3057 -0.0194
    1WF      WF62032  20.026   9.479   9.567  0.6792  0.2776  0.2556
    1WF      WF62033  20.670  20.896   0.386  0.0167  0.1946 -0.3427
    1WF      WF62034  22.823   2.829   8.741  0.1457  0.0992  0.1426
    1WF      WF62035   0.228  23.852   0.150 -0.1026 -0.2422 -0.2305
    1WF      WF62036   4.782  26.161   0.325  0.3548 -0.0001 -0.0317
    1WF      WF62037  27.594  14.732   7.505 -0.2267 -0.1814  0.0989
    1WF      WF62038  27.605  19.276   9.374  0.1500  0.3784 -0.1953
    1WF      WF62039  23.312   0.881   9.226  0.1513  0.1092  0.0045
    1WF      WF62040  10.571   8.857   1.774 -0.1417  0.0630  0.0687
    1WF      WF62041  23.527   4.553   1.307  0.0188  0.1057  0.0607
    1WF      WF62042  12.985   6.563   3.593 -0.0021  0.0544  0.0606
    1WF      WF62043   4.026  10.620   8.854 -0.3507 -0.2109 -0.3233
    1WF      WF62044   1.121  24.365   2.087 -0.1923  0.2657  0.2533
    1WF      WF62045   8.388  25.717   8.281 -0.1606  0.0358 -0.0789
    1WF      WF62046   7.031  29.155   8.296  0.2527  0.0049  0.3246
    1WF      WF62047  22.551   9.064   7.049  0.3228  0.1608  0.2529
    1WF      WF62048  14.205  26.019   9.483  0.1029  0.1898 -0.2496
    1WF      WF62049   5.001   5.148   1.877 -0.0426  0.4369  0.3018
    1WF      WF62050  21.562  10.172   6.438 -0.2509 -0.1097 -0.3240
    1WF      WF62051   4.882   0.562   0.937  0.0427 -0.1330 -0.1075
    1WF      WF62052  15.007  21.738   1.168  0.1481 -0.1906 -0.0976
    1WF      WF62053  17.022   9.926   1.211  0.0081 -0.1965  0.1463
    1WF      WF62054   1.209   1.802   2.833 -0.0547  0.0401 -0.1133
    1WF      WF62055  11.473  24.777   6.450 -0.0090  0.0982 -0.0290
    1WF      WF62056  25.979   2.501   1.336  0.1784 -0.1229  0.1826
    1WF      WF62057  15.652  14.399   8.686  0.2196  0.3790  0.0260
    1WF      WF62058   7.129   2.975   8.325  0.0988 -0.0603  0.1048
    1WF      WF62059   1.299  12.190   8.012 -0.1551  0.2087  0.0989
    1WF      WF62060  21.035   6.426   8.898 -0.0432 -0.2811  0.0592
    1WF      WF62061  26.214  22.829   1.099 -0.1932  0.1797  0.1539
    1WF      WF62062  23.116  18.082   9.001  0.2967 -0.4369  0.0501
    1WF      WF62063   1.262   0.557   9.633 -0.3105  0.2314 -0.1151
    1WF      WF62064  29.225  10.759   8.808  0.0775 -0.0652  0.1808
    1WF      WF62065   6.261  14.534   2.184  0.1237 -0.0068  0.2322
    1WF      WF62066  23.308   9.555   0.913  0.1968 -0.1026  0.3024
    1WF      WF62067   8.879   7.479   0.329  0.2080  0.2143 -0.0771
    1WF      WF62068   8.863  18.689   0.202  0.1145  0.0798  0.0593
    1WF      WF62069   1.143  10.571   6.529  0.0638 -0.1782 -0.3297
    1WF      WF62070  28.779  15.186   2.053 -0.2760  0.1812  0.0920
    1WF      WF62071  11.257  10.533   0.180 -0.2713  0.0192 -0.4193
    1WF      WF62072   6.073  20.131   9.060  0.0374  0.0176  0.0073
    1WF      WF62073  29.103   8.370   0.811 -0.1375 -0.2306  0.3693
    1WF      WF62074   2.400  23.414   2.383  0.3275  0.3009  0.1493
    1WF      WF62075  20.031  20.920   6.715  0.1525 -0.1519 -0.0123
    1WF      WF62076  23.526  19.644   1.573  0.0626  0.2163  0.1611
    1WF      WF62077  17.753  24.153   1.752 -0.1360  0.1241  0.3392
    1WF      WF62078  28.015  19.303   8.208  0.0226  0.1182 -0.0526
    1WF      WF62079   3.291  16.749   7.515  0.0170 -0.1501 -0.1227
    1WF      WF62080  10.928  11.722   0.723 -0.4445  0.1437 -0.0343
    1WF      WF62081  12.160  28.250   1.803 -0.0514 -0.0267  0.0226
    1WF      WF62082  11.013  21.633   0.090  0.1147 -0.1485 -0.1290
    1WF      WF62083  25.891  13.460   6.602  0.0046  0.0695  0.0740
    1WF      WF62084  19.698   3.243   7.552 -0.1235 -0.0473 -0.0428
    1WF      WF62085   5.765  15.064   7.266 -0.0612  0.2377  0.1130
    1WF      WF62086  25.308  23.794   1.732 -0.0873 -0.1241 -0.1273
    1WF      WF62087   6.350   0.091   2.311  0.0484  0.0217  0.2783
    1WF      WF62088  18.958  20.142   0.432 -0.1315  0.0761 -0.1568
    1WF      WF62089  21.275  24.319   2.088 -0.1650  0.0671  0.0268
    1WF      WF62090   8.265  16.496   8.716 -0.0203 -0.0454 -0.2128
    1WF      WF62091  26.725  25.917   7.521 -0.0347 -0.3057  0.0713
    1WF      WF62092   2.872  23.668   1.511 -0.2468  0.0955  0.0873
    1WF      WF62093  10.501  10.084   2.110  0.0278  0.1389 -0.0141
    1WF      WF62094  23.192   2.821   0.527  0.0152  0.1007 -0.0090
    1WF      WF62095   1.708   1.920   2.851 -0.1495  0.1569  0.0090
    1WF      WF62096   4.247   0.893   3.393 -0.0653 -0.1077 -0.1109
    1WF      WF62097   9.057  11.142   6.587 -0.1397  0.3090 -0.2747
    1WF      WF62098   2.081  20.069   1.069 -0.0242  0.1440 -0.2429
    1WF      WF62099   5.503  23.419   7.148  0.0117 -0.0130 -0.2274
    1WF      WF62100  25.207  25.470   8.969 -0.2589 -0.0359  0.1635
    1WF      WF62101  13.301  25.592   9.540  0.1897  0.2171  0.0435
    1WF      WF62102  13.795   4.523   9.087 -0.1064 -0.0951  0.2278
    1WF      WF62103   9.805   0.308   1.336  0.0183 -0.2176 -0.1579
    1WF      WF62104  20.077  27.042   1.834  0.1901  0.0417 -0.0553
    1WF      WF62105   0.357  13.208   7.993  0.1278  0.0983 -0.0890
    1WF      WF62106  12.679   2.470   1.138 -0.1189  0.0072  0.0112
    1WF      WF62107  27.182  20.329   1.888  0.1611 -0.0192  0.2663
    1WF      WF62108   2.404   3.670   1.026  0.0937  0.0598  0.0124
    1WF      WF62109  27.540  23.565   1.520  0.0118 -0.2718  0.0298
    1WF      WF62110  11.948  24.930   1.734 -0.0372  0.0667  0.0686
    1WF      WF62111   8.685   6.640   8.046  0.2241 -0.2515 -0.2053
    1WF      WF62112   7.355  18.691   9.578 -0.0160 -0.0285  0.0184
    1WF      WF62113  24.414   9.640   8.736  0.0261  0.0698  0.0439
    1WF      WF62114  12.539   4.242   8.634  0.2926 -0.0994  0.0621
    1WF      WF62115  15.850  15.204   1.183  0.2336  0.3540 -0.2152
    1WF      WF62116  24.103  28.622   8.574 -0.1580 -0.3281  0.0817
    1WF      WF62117  25.273   1.365   8.782 -0.1826 -0.0570  0.1329
    1WF      WF62118  16.161   9.375   9.120  0.2216  0.2783  0.2565
    1WF      WF62119  18.424  25.349   6.532 -0.2084  0.1499 -0.2885
    1WF      WF62120   0.323   7.085   5.686 -0.2541  0.1809 -0.3278
    1WF      WF62121  18.907  12.651   1.012  0.0453  0.0145 -0.0412
    1WF      WF62122  14.611  24.667   2.032  0.3149  0.3898  0.0434
    1WF      WF62123  23.093  28.018   8.936 -0.0450 -0.0090  0.2393
    1WF      WF62124   1.203  19.339   8.363 -0.1189 -0.1358 -0.0502
    1WF      WF62125   6.571  10.476   0.381 -0.0939  0.0797  0.1751
    1WF      WF62126  25.976  22.926   1.554 -0.0735  0.1745 -0.0912
    1WF      WF62127  20.246   2.861   0.149  0.1710 -0.0568 -0.2395
    1WF      WF62128   8.611  16.649   2.279 -0.4776  0.0474 -0.2837
    1WF      WF62129  23.925   8.758   7.847  0.2572  0.2297  0.0068
    1WF      WF62130   6.145   7.558   7.291 -0.2273  0.0003 -0.1371
    1WF      WF62131  29.090  10.566   7.819 -0.0258 -0.2463  0.1183
    1WF      WF62132  25.042  19.655   1.442  0.2395 -0.1401  0.0517
    1WF      WF62133  17.110  21.026   9.087  0.0180  0.2944  0.0267
    1WF      WF62134   7.191  22.177   8.830 -0.1736 -0.1455  0.4063
    1WF      WF62135  13.115  18.206   8.153  0.0325  0.1532 -0.0412
    1WF      WF62136   9.026  26.769   0.370  0.2595  0.0191  0.2419
    1WF      WF62137  23.410   0.614   1.114 -0.1222 -0.2256  0.0635
    1WF      WF62138   8.935   5.719   1.605 -0.5078 -0.1481 -0.1273
    1WF      WF62139  10.287   0.499   1.257 -0.1604 -0.0005 -0.1929
    1WF      WF62140   8.230  19.595   7.848  0.1981  0.2882 -0.0908
    1WF      WF62141   9.980  12.954   2.303 -0.3102 -0.1238 -0.0361
    1WF      WF62142   2.185  22.121   9.118  0.0804 -0.1748  0.2032
    1WF      WF62143  20.754  21.203   9.680  0.2640  0.2406 -0.0749
    1WF      WF62144   3.454  22.933   0.175 -0.0083 -0.1412 -0.4135
    1WF      WF62145  18.610  21.462   1.458 -0.1970  0.1845  0.1393
    1WF      WF62146  22.891   9.047   3.206  0.0103 -0.0343 -0.2955
    1WF      WF62147   3.897  23.908   0.299  0.0599 -0.1547  0.0682
    1WF      WF62148  23.303  19.437   1.992  0.4245 -0.2114 -0.0421
    1WF      WF62149  24.797   9.611   2.194 -0.0897  0.1400 -0.3288
    1WF      WF62150   7.833  23.334   1.530 -0.2482  0.1157  0.1035
    1WF      WF62151  15.487   6.429   8.981 -0.1469 -0.1772 -0.1519
    1WF      WF62152  19.128  12.983   8.511  0.0958 -0.1914  0.0315
    1WF      WF62153   9.682  18.955   0.800 -0.0104  0.1662 -0.3309
    1WF      WF62154  17.436  21.719   8.405  0.0374  0.1019 -0.0129
    1WF      WF62155  22.538  23.924   0.336  0.1468  0.0111  0.0631
    1WF      WF62156  12.337  26.939   0.113  0.0639 -0.1251  0.0861
    1WF      WF62157   7.597  26.190   1.237 -0.0089  0.0311  0.0878
    1WF      WF62158  27.862   5.699   8.944 -0.0193 -0.3453  0.2068
    1WF      WF62159  20.441   6.586   9.665  0.1723  0.3145  0.0353
    1WF      WF62160  28.065  20.377   0.098  0.1474 -0.0355 -0.4771
    1WF      WF62161  27.371  28.925   0.741  0.1410  0.0309  0.0255
    1WF      WF62162   0.384  17.241   6.191 -0.2355 -0.0019  0.3258
    1WF      WF62163  10.939  27.483   9.441  0.1121  0.0155 -0.3001
    1WF      WF62164   0.029  21.923   7.571  0.0669  0.2107  0.0948
    1WF      WF62165   9.881   7.423   8.848 -0.1891  0.0164 -0.0829
    1WF      WF62166  26.594  10.114   0.620 -0.0681  0.1959  0.0369
    1WF      WF62167  20.099  21.196   8.773 -0.1482  0.0094 -0.0284
    1WF      WF62168   4.426  27.358   9.078  0.2635  0.3025 -0.1446
    1WF      WF62169  16.917  14.052   1.058 -0.2147  0.0315  0.0799
    1WF      WF62170  11.401  11.749   0.776 -0.1707  0.1155 -0.1264
    1WF      WF62171  27.362   5.649   9.043  0.0803 -0.0533 -0.2215
    1WF      WF62172  12.750  28.608   4.620  0.1596  0.0085 -0.4345
    1WF      WF62173   5.671  19.130   6.810 -0.0051 -0.0396 -0.0497
    1WF      WF62174  14.637   4.991   2.021  0.2057  0.3394  0.3387
    1WF      WF62175  23.991   7.456   9.339  0.1303  0.2846 -0.0908
    1WF      WF62176  15.731   9.617   2.251 -0.0273  0.5195  0.2816
    1WF      WF62177  14.543  11.618   8.265  0.2311 -0.2463  0.2167
    1WF      WF62178   8.372  12.830   8.444 -0.0649 -0.2422 -0.2002
    1WF      WF62179  25.489   2.100   7.468 -0.0023 -0.3174  0.1547
    1WF      WF62180  27.004  18.998   2.375 -0.0264 -0.2015  0.1782
    1WF      WF62181   1.876  25.691   8.663 -0.0587 -0.1090 -0.1693
    1WF      WF62182  24.000   3.874   8.826  0.0663  0.2135 -0.1005
    1WF      WF62183  17.017  26.663   8.763 -0.2966 -0.0303 -0.3406
    1WF      WF62184  19.485   5.519   9.405 -0.1122  0.2651  0.0286
    1WF      WF62185   6.362   5.759   0.588  0.2375 -0.2262  0.1322
    1WF      WF62186  28.897   9.028   7.129 -0.0616 -0.1179  0.1738
    1WF      WF62187   8.786  13.058   7.145 -0.0373 -0.3730  0.1663
    1WF      WF62188   2.255   9.698   1.559  0.3420 -0.0901 -0.1428
    1WF      WF62189  17.516  15.526   0.930 -0.1249 -0.0120 -0.1828
    1WF      WF62190   0.449   4.789   1.835  0.0214  0.4568 -0.0871
    1WF      WF62191   8.448  18.957   0.389 -0.3512 -0.3920 -0.2232
    1WF      WF62192  24.121  28.988   1.915  0.0963  0.3720 -0.3320
    1WF      WF62193  26.478  25.045   8.886  0.1765  0.0958  0.0886
    1WF      WF62194  16.705  10.342   8.762  0.1236  0.0151 -0.3186
    1WF      WF62195  26.412   5.252   9.154  0.1702 -0.1349  0.0060
    1WF      WF62196  11.998  10.715   9.106  0.0729 -0.0821  0.2531
    1WF      WF62197   5.885  20.662   0.039 -0.2358 -0.1812 -0.1904
    1WF      WF62198  12.430  20.871   1.877  0.0080 -0.2273  0.0428
    1WF      WF62199  17.157  25.632   0.222  0.0023 -0.1800 -0.0981
    1WF      WF62200  27.520  11.723   7.885 -0.2468  0.0331 -0.0287
    1WF      WF62201  11.120  25.756   8.604  0.0711 -0.1199 -0.2041
    1WF      WF62202  26.924   6.866   2.322  0.0424 -0.0206  0.1546
    1WF      WF62203  23.091  18.297   0.523  0.1730  0.1263  0.0566
    1WF      WF62204   1.993  21.495   0.347 -0.1491  0.0873  0.0717
    1WF      WF62205   4.514   6.336   6.141  0.1978  0.0557 -0.1209
    1WF      WF62206   8.554   0.166   9.083  0.0736  0.0246  0.2837
    1WF      WF62207  12.683  22.794   1.378  0.3109 -0.2251 -0.2659
    1WF      WF62208   7.965  19.168   0.504 -0.1049 -0.0503 -0.4177
    1WF      WF62209   8.065  14.552   6.274 -0.0684 -0.0014 -0.2497
    1WF      WF62210  12.780   1.414   1.438  0.1143 -0.2108  0.1719
    1WF      WF62211   6.410  10.375   8.946  0.1066  0.1665  0.0756
    1WF      WF62212  11.345   3.705   7.977 -0.2192  0.1747  0.3231
    1WF      WF62213  11.813  16.196   9.579 -0.0591 -0.1641 -0.0315
    1WF      WF62214  17.219   1.762   1.092  0.0043 -0.1475  0.0017
    1WF      WF62215  22.207  19.163   0.765 -0.0706 -0.0154  0.1382
    1WF      WF62216  26.121   3.427   1.268 -0.0089  0.0885 -0.0990
    1WF      WF62217   3.715  28.038   6.551 -0.0924  0.0079 -0.0053
    1WF      WF62218   5.367  10.575   3.156 -0.0280  0.2356  0.1035
    1WF      WF62219  15.480   4.563   0.978 -0.2516 -0.1761 -0.1333
    1WF      WF62220  28.623   4.300   1.402 -0.2000 -0.0605 -0.0815
    1WF      WF62221  22.651  21.250   2.281 -0.1049  0.1842  0.1875
    1WF      WF62222   8.144  14.922   9.422  0.0860 -0.0501  0.2444
    1WF      WF62223   2.123  14.990   0.552 -0.1632 -0.1876 -0.0294
    1WF      WF62224  21.043  27.211   8.467  0.3393  0.0526 -0.0510
    1WF      WF62225  18.658  19.693   0.383  0.1990 -0.4151 -0.0370
    1WF      WF62226  22.776  23.385   7.927  0.2033 -0.0117 -0.0560
    1WF      WF62227  12.260   9.666   7.585 -0.0623 -0.1686 -0.1717
    1WF      WF62228  19.956   6.364   2.367  0.1049  0.1337  0.1615
    1WF      WF62229   5.151   1.678   1.548 -0.0246  0.3242 -0.0264
    1WF      WF62230  19.082  22.011   7.509 -0.3262 -0.2151 -0.1976
    1WF      WF62231   7.687   5.497   8.625 -0.0885 -0.0553 -0.0979
    1WF      WF62232  25.648  20.728   8.650 -0.2182  0.1151  0.0550
    1WF      WF62233  25.224  15.518   8.017  0.0323 -0.1158 -0.2559
    1WF      WF62234  17.984  15.705   1.050 -0.1386  0.0333 -0.1243
    1WF      WF62235  25.341  26.192   8.040 -0.3244  0.0346  0.2195
    1WF      WF62236   3.766   8.284   0.025  0.1413  0.1953  0.1340
    1WF      WF62237  18.763   4.810   0.383 -0.2675  0.1702  0.1947
    1WF      WF62238   1.088   1.726   0.385 -0.1841 -0.3733  0.1495
    1WF      WF62239  24.779  28.988   9.605  0.0248  0.1315 -0.0109
    1WF      WF62240  28.290  27.335   0.055  0.1032  0.1423  0.3463
    1WF      WF62241   9.429  22.198   1.024  0.1455  0.4629  0.2906
    1WF      WF62242  18.971  16.891   1.663 -0.0117  0.0638 -0.1015
    1WF      WF62243  10.914  27.916   2.528 -0.0428 -0.1188 -0.0232
    1WF      WF62244   8.838   3.977   9.066 -0.1568  0.1964 -0.2179
    1WF      WF62245  29.044   5.829   0.714 -0.0889  0.2232  0.2788
    1WF      WF62246  17.240   9.285   9.339 -0.1561  0.0849 -0.1173
    1WF      WF62247  21.475  24.413   0.616 -0.3029 -0.0656 -0.1361
    1WF      WF62248  18.455   2.987   3.178 -0.0145  0.1715  0.2412
    1WF      WF62249  26.470  21.697   7.521 -0.2689  0.3151  0.1682
    1WF      WF62250   3.871   7.289   8.637 -0.3146  0.0595 -0.2867
    1WF      WF62251   7.322   8.798   2.538 -0.2249 -0.3558 -0.1703
    1WF      WF62252  20.082  22.262   9.016  0.2404  0.2186 -0.0445
    1WF      WF62253   3.102  23.154   9.585  0.1692  0.0140 -0.0901
    1WF      WF62254  16.331  22.722   9.061 -0.0362 -0.0701  0.0225
    1WF      WF62255  14.931  27.553   0.001  0.2475  0.0798  0.3123
    1WF      WF62256  22.819   0.894   9.174  0.1560 -0.0033  0.1664
    1WF      WF62257  25.003  15.164   2.890  0.2100  0.0910 -0.0185
    1WF      WF62258  29.291   9.498   0.491  0.0886 -0.1155 -0.0204
    1WF      WF62259  23.279  14.310   0.236  0.2189  0.1083 -0.1831
    1WF      WF62260  28.878  21.872   2.324  0.2172  0.4452 -0.2455
    1WF      WF62261   2.993   8.801   0.417 -0.0970  0.1108  0.0273
    1WF      WF62262  14.016  17.344   0.879  0.0400  0.1159  0.3134
    1WF      WF62263   5.205   4.399   6.848  0.2329  0.2173  0.0881
    1WF      WF62264   0.669   0.745   1.831  0.2713 -0.0225  0.2556
    1WF      WF62265  16.398   5.626   8.378 -0.1128 -0.2542  0.2752
    1WF      WF62266  10.491   6.005   0.298  0.1213 -0.0423  0.3133
    1WF      WF62267  26.795  14.080   1.001 -0.0715 -0.0085 -0.3272
    1WF      WF62268   8.882   0.161   8.690  0.0223 -0.3152  0.1863
    1WF      WF62269  11.011   1.292   3.895 -0.3784 -0.1880  0.0688
    1WF      WF62270  19.185  17.400   7.145 -0.2790  0.1964  0.2613
    1WF      WF62271   3.137  25.391   1.510  0.0835  0.0153  0.1297
    1WF      WF62272  23.140  18.243   8.447 -0.1592 -0.0132  0.0687
    1WF      WF62273  24.729  17.695   1.916  0.1564 -0.1480 -0.2026
    1WF      WF62274  21.832   9.457   7.914 -0.1338 -0.0274 -0.2786
    1WF      WF62275  18.079  24.834   0.493  0.2441  0.0708 -0.0264
    1WF      WF62276  13.435  11.788   9.075  0.1487  0.2128 -0.0316
    1WF      WF62277  10.118  14.698   8.271 -0.1378  0.0884 -0.0087
    1WF      WF62278  24.070  27.760   7.115 -0.1347  0.0391 -0.0444
    1WF      WF62279  22.805  21.114   1.269  0.1965  0.2069 -0.3935
    1WF      WF62280  24.247   3.294   6.958 -0.2004  0.1101 -0.0401
    1WF      WF62281  21.845  19.711   8.686 -0.0112  0.1151 -0.1617
    1WF      WF62282  19.538  24.185   6.668 -0.0936 -0.0522  0.2804
    1WF      WF62283  19.731  20.899   8.690  0.0178 -0.1083  0.0240
    1WF      WF62284   4.655  12.648   8.723  0.4580  0.2835 -0.1551
    1WF      WF62285   8.597  12.096   7.681  0.2196  0.0571  0.0980
    1WF      WF62286  10.845  22.726   0.823  0.0510  0.0529  0.1528
    1WF      WF62287  16.798   6.231   2.495  0.0796 -0.1585 -0.0132
    1WF      WF62288   7.422  16.705   1.192  0.1660  0.0065  0.0895
    1WF      WF62289  29.139  28.871   0.517 -0.1707  0.2258  0.1303
    1WF      WF62290  11.628  22.848   1.183  0.1372 -0.0282  0.1153
    1WF      WF62291  22.121  22.817   0.382 -0.0025  0.1326  0.0819
    1WF      WF62292  19.447   2.285   1.375  0.1587 -0.2337  0.1853
    1WF      WF62293   7.403   2.497   8.603  0.0774 -0.0728 -0.1022
    1WF      WF62294   5.930  23.514   5.831  0.3693  0.1453 -0.0714
    1WF      WF62295   9.863  20.150   8.929 -0.0835  0.0953  0.0053
    1WF      WF62296   2.920  26.208   2.162 -0.1170 -0.1841 -0.3131
    1WF      WF62297  22.766   9.471   7.207 -0.1071  0.0261  0.0834
    1WF      WF62298  21.867  16.355   1.240 -0.0491  0.1969 -0.1897
    1WF      WF62299  22.068  12.319   9.511 -0.0556  0.2157 -0.5307
    1WF      WF62300  15.805   0.660   0.789 -0.2077  0.1118 -0.0448
    1WF      WF62301   4.657  14.297   1.074  0.1880 -0.1789 -0.1923
    1WF      WF62302  15.752  26.223   0.420  0.0669  0.0867 -0.0630
    1WF      WF62303  23.404  19.379   0.170  0.0092  0.2421  0.1322
    1WF      WF62304  12.830  15.599   7.111  0.3457  0.0783  0.2505
    1WF      WF62305  12.236  22.979   1.431  0.0219 -0.0030  0.2507
    1WF      WF62306   0.340  24.304   7.694 -0.1645  0.2555 -0.0621
    1WF      WF62307  10.115   6.904   7.621  0.0599  0.1846 -0.0324
    1WF      WF62308   6.262  10.009   0.482 -0.1462  0.1276 -0.0025
    1WF      WF62309   4.335  24.379   1.160  0.3026 -0.1775 -0.0262
    1WF      WF62310   7.149   7.415   6.036 -0.2492  0.1451 -0.2613
    1WF      WF62311  23.654   3.889   7.211 -0.2514 -0.1513 -0.1037
    1WF      WF62312  12.365  18.936   0.032  0.1859 -0.1524  0.2230
    1WF      WF62313   1.416  18.732   8.708  0.0094  0.2951 -0.0144
    1WF      WF62314  21.798  16.288   9.113 -0.0233  0.2604 -0.1857
    1WF      WF62315  26.020  16.995   6.493  0.1251  0.0207 -0.0752
    1WF      WF62316   9.515   0.128   3.535  0.0272 -0.2393  0.3251
    1WF      WF62317  22.763  24.405   8.888 -0.1274  0.0650 -0.0413
    1WF      WF62318  17.809   1.971   8.693 -0.1356  0.0812  0.0525
    1WF      WF62319   0.576  23.471   0.331  0.4654  0.1855 -0.0046
    1WF      WF62320  13.050  19.607   2.466 -0.1666 -0.0495  0.1634
    1WF      WF62321  19.742   2.689   9.107  0.3253 -0.1201  0.0201
    1WF      WF62322  18.437   3.257   7.783  0.1244  0.1773  0.0330
    1WF      WF62323  11.946  12.488   8.230  0.2472 -0.0069  0.0034
    1WF      WF62324  24.257  16.375   8.279  0.0395 -0.2023 -0.0058
    1WF      WF62325  14.411   6.294   8.946  0.1328  0.0435 -0.0313
    1WF      WF62326  16.976  27.736   0.969 -0.0013 -0.4590  0.2406
    1WF      WF62327   3.512   1.465   2.009  0.3135 -0.4847  0.0380
    1WF      WF62328   6.165   3.610   8.246  0.2114 -0.0089 -0.0318
    1WF      WF62329   8.899   9.310   1.642 -0.2232  0.1216 -0.1079
    1WF      WF62330   7.559   1.576   8.500 -0.1434 -0.1949 -0.0832
    1WF      WF62331   7.424   6.084   1.938  0.1320  0.1865 -0.0506
    1WF      WF62332  21.514  26.367   1.139 -0.1048  0.0290 -0.0534
    1WF      WF62333  10.015  14.816   0.500  0.0277  0.3399  0.0470
    1WF      WF62334  27.066   7.356   2.231  0.0589  0.1312  0.0208
    1WF      WF62335  26.489   2.721   8.614  0.2649  0.1747  0.1149
    1WF      WF62336   3.239  18.379   7.762 -0.3038  0.3852  0.4314
    1WF      WF62337   3.167  16.068   0.389  0.1289  0.1217  0.0161
    1WF      WF62338  17.607  11.130   1.211  0.0831 -0.3191  0.0272
    1WF      WF62339   4.997   8.155   7.512 -0.0958  0.3855 -0.1864
    1WF      WF62340   2.944  22.216   7.941 -0.0149 -0.3460 -0.1835
    1WF      WF62341   3.301  27.960   8.136 -0.1180  0.1919 -0.1515
    1WF      WF62342   2.124  12.484   0.240 -0.0457  0.0719 -0.2729
    1WF      WF62343  22.573  16.302   2.427  0.2314  0.1941 -0.3024
    1WF      WF62344   3.224   0.370   6.099  0.1911  0.3558 -0.1354
    1WF      WF62345  12.902   6.231   9.461 -0.0159  0.3296 -0.0709
    1WF      WF62346   8.768  25.596   9.184 -0.0428  0.3029 -0.0077
    1WF      WF62347   4.969  12.764   8.319  0.2352 -0.0511  0.1760
    1WF      WF62348  26.191  21.859   0.920  0.1570  0.1931  0.1638
    1WF      WF62349   9.922  13.413   8.962 -0.2707  0.0469 -0.0763
    1WF      WF62350  21.234  13.574   6.996  0.5731  0.1737  0.1249
    1WF      WF62351  15.868  15.600   0.803  0.1009  0.0471 -0.1689
    1WF      WF62352   3.638  25.471   1.980 -0.1463 -0.2318 -0.2521
    1WF      WF62353   4.726   0.900   7.866 -0.0673  0.1267 -0.1462
    1WF      WF62354   6.973   8.895   7.591  0.1260 -0.0653  0.0633
    1WF      WF62355  14.078  11.525   8.324 -0.0453 -0.0852 -0.1326
    1WF      WF62356   2.270  25.423   9.061 -0.0943 -0.1225 -0.0844
    1WF      WF62357  20.131  17.434   0.890  0.0884  0.4814 -0.1739
    1WF      WF62358  26.962   6.244   1.279 -0.1131  0.1367 -0.0585
    1WF      WF62359   4.128  14.169   8.127  0.0609  0.1841 -0.0174
    1WF      WF62360   7.180  17.277   9.553  0.2262  0.0323  0.0391
    1WF      WF62361  27.384   4.116   9.330  0.1771  0.0196 -0.1174
    1WF      WF62362   7.622   5.065   1.672  0.1640  0.1895 -0.0716
    1WF      WF62363   3.559  17.925   0.943  0.1086  0.1390 -0.3059
    1WF      WF62364   9.295  13.611   8.952 -0.1861 -0.1511  0.1040
    1WF      WF62365  13.226  17.793   8.386  0.1495 -0.0319  0.1345
    1WF      WF62366   9.676   6.986   7.403  0.0253  0.2835  0.1283
    1WF      WF62367  16.762  27.526   2.089 -0.0842 -0.1050  0.1132
    1WF      WF62368  20.158   3.659   8.398 -0.3601  0.0526 -0.2260
    1WF      WF62369  11.858  22.150   1.601  0.2104  0.0345  0.4648
    1WF      WF62370   1.556  27.353   8.700  0.1952  0.3487  0.0527
    1WF      WF62371  11.857  14.409   8.498  0.1984 -0.1380  0.1435
    1WF      WF62372  25.066  19.211   8.102  0.3556 -0.1052 -0.6279
    1WF      WF62373  18.739  25.838   8.372 -0.1289  0.2723 -0.0563
    1WF      WF62374   2.636  27.061   0.938 -0.4071  0.2110 -0.1674
    1WF      WF62375  11.489  27.214   9.523  0.0402 -0.2110  0.1067
    1WF      WF62376   7.522  27.461   0.883  0.1672  0.1845  0.0613
    1WF      WF62377   0.540  23.426   8.199 -0.0044 -0.0313  0.0381
    1WF      WF62378  12.943  21.172   2.963  0.1511  0.0026  0.1019
    1WF      WF62379   3.676   8.086   8.139 -0.1323 -0.0179  0.0063
    1WF      WF62380  29.011   8.608   8.916  0.1789 -0.1485  0.1368
    1WF      WF62381  23.804  14.256   1.315 -0.1143 -0.0538  0.0181
    1WF      WF62382  19.284  27.739   0.021  0.0224 -0.1280 -0.0434
    1WF      WF62383  12.750   2.541   1.636  0.1897 -0.3330  0.0332
    1WF      WF62384  25.290  18.852   1.540  0.2525 -0.2831 -0.2792
    1WF      WF62385  20.071   5.210   0.503  0.2633  0.1960 -0.2607
    1WF      WF62386  15.952  17.274   8.988 -0.0105  0.1725  0.1340
    1WF      WF62387  25.354   1.618   7.836  0.0583  0.1646  0.2243
    1WF      WF62388  25.579  29.216   3.142 -0.2289  0.0662 -0.0118
    1WF      WF62389   9.208  10.101   9.339 -0.2608  0.0375 -0.0896
    1WF      WF62390  28.102  25.507   0.043  0.1231  0.0314 -0.0439
    1WF      WF62391   9.359   3.720   8.996 -0.5079 -0.0353  0.0821
    1WF      WF62392  22.336  12.824   1.086  0.0401  0.1869 -0.1010
    1WF      WF62393  17.747   1.638   9.044 -0.1618  0.0855  0.2939
    1WF      WF62394   8.902  16.992   0.118 -0.0199 -0.2474 -0.2046
    1WF      WF62395  27.335  18.369   0.419  0.0610 -0.3336  0.4184
    1WF      WF62396   9.824   3.319   1.626  0.0707 -0.0343  0.0476
    1WF      WF62397  21.714   3.833   0.628  0.2054  0.1458  0.5105
    1WF      WF62398  16.907  11.505   2.152 -0.2345 -0.1890  0.0351
    1WF      WF62399  12.326  10.204   8.777  0.0670 -0.0751 -0.0132
    1WF      WF62400  27.332   8.128   7.991  0.1596  0.2752 -0.0655
    1WF      WF62401  23.216  28.286   2.701 -0.1684 -0.0222  0.1791
    1WF      WF62402  20.127  21.639   8.977 -0.3414 -0.0378  0.2551
    1WF      WF62403  23.261  13.258   2.344 -0.1735  0.1503  0.2069
    1WF      WF62404  14.158   6.696   8.806  0.0983  0.1102 -0.0930
    1WF      WF62405  28.773  18.895   1.344  0.1358  0.2556 -0.1766
    1WF      WF62406  12.842   5.017   2.666 -0.2974  0.0140  0.3564
    1WF      WF62407  12.474   3.950   0.475 -0.0047 -0.0232 -0.0875
    1WF      WF62408  15.209  27.129   2.218 -0.0777  0.0572  0.0914
    1WF      WF62409  12.305   3.588   9.041  0.0095  0.2645 -0.0007
    1WF      WF62410  15.701   4.836   7.494  0.1502 -0.0340 -0.1719
    1WF      WF62411   1.279  15.812   8.556  0.0948 -0.0935 -0.2883
    1WF      WF62412   9.592  13.439   9.344  0.0348 -0.2777  0.1347
    1WF      WF62413  19.568   5.309   1.983 -0.1555 -0.2051  0.3098
    1WF      WF62414  18.103  10.447   0.972  0.0341 -0.1466 -0.3129
    1WF      WF62415  29.106  15.877   7.951 -0.1445  0.0081  0.0230
    1WF      WF62416  14.876  16.198   8.327  0.1113  0.1878 -0.2176
    1WF      WF62417   9.547  26.923   7.680 -0.2236 -0.0797  0.1206
    1WF      WF62418   2.275   6.762   7.891  0.0765 -0.2815  0.0740
    1WF      WF62419  17.083  24.659   9.005 -0.2212 -0.2573  0.0684
    1WF      WF62420  10.046   0.874   2.172 -0.0309 -0.2949  0.2447
    1WF      WF62421   8.421  19.259   8.564 -0.0496  0.0985  0.2718
    1WF      WF62422  13.293   4.254   8.016 -0.2340 -0.2922  0.0995
    1WF      WF62423  23.150   3.190   0.116  0.2978 -0.2037  0.0523
    1WF      WF62424   3.937  27.785   3.253  0.1535 -0.1114 -0.0487
    1WF      WF62425  29.142  14.612   7.319  0.2453 -0.0839 -0.2632
    1WF      WF62426  10.172   0.750   3.774  0.0153  0.0554 -0.2270
    1WF      WF62427  21.638  24.184   1.090 -0.1913 -0.0660 -0.1344
    1WF      WF62428   4.108   6.138   8.629  0.0103  0.0990 -0.0486
    1WF      WF62429  13.189  15.903   1.031 -0.3568 -0.1544  0.0446
    1WF      WF62430  18.933  21.602   7.318 -0.1237  0.1344 -0.2190
    1WF      WF62431  10.650  23.364   8.554  0.0201  0.1348  0.1749
    1WF      WF62432  29.311  10.700   0.941 -0.1039 -0.0927  0.0848
    1WF      WF62433  22.948   9.464   8.520 -0.0237 -0.1341  0.0052
    1WF      WF62434  27.594  19.069   8.445 -0.3690 -0.1163  0.0943
    1WF      WF62435  21.008  25.052   9.140 -0.0168  0.2699  0.0313
    1WF      WF62436  10.597   3.505   1.301  0.1724  0.1152 -0.1555
    1WF      WF62437   5.076   6.806   2.752 -0.0764  0.2317 -0.1000
    1WF      WF62438  17.010   7.701   8.707  0.4388 -0.2626 -0.1291
    1WF      WF62439  22.327  10.730   0.801 -0.2614  0.1541 -0.0946
    1WF      WF62440  25.061   5.283   0.165  0.0754 -0.4383  0.1194
    1WF      WF62441   3.448  15.505   0.305 -0.0363 -0.0460 -0.1078
    1WF      WF62442  10.043   2.686   2.089 -0.1169 -0.1015  0.1680
    1WF      WF62443  26.336   9.790   7.538 -0.2229  0.2878  0.0008
    1WF      WF62444   8.278  22.219   0.175 -0.0951  0.0699 -0.1260
    1WF      WF62445  16.074   5.713   1.986  0.0582 -0.1004  0.0505
    1WF      WF62446   6.028   7.535   1.415  0.0560 -0.2280  0.0549
    1WF      WF62447  28.227  25.419   1.081 -0.1044 -0.2373  0.0976
    1WF      WF62448  18.941  17.494   2.467  0.0032  0.0491 -0.0452
    1WF      WF62449  22.425   2.870   8.461 -0.3988 -0.0036  0.2442
    1WF      WF62450  16.911  25.269   9.148 -0.0739 -0.3391 -0.0900
    1WF      WF62451  20.108  21.048   8.303 -0.1265  0.0919 -0.1662
    1WF      WF62452  19.051   9.690   9.084  0.1779  0.1805 -0.1724
    1WF      WF62453  29.216  19.670   7.865 -0.1289  0.0788  0.1215
    1WF      WF62454   2.034  25.896   1.092  0.0669 -0.1035  0.1844
    1WF      WF62455  27.316  14.393   7.322  0.0555 -0.1313  0.3574
    1WF      WF62456   4.475  10.515   9.160  0.0829  0.1050 -0.1735
    1WF      WF62457   9.825   3.598   8.833 -0.0366 -0.3918 -0.3017
    1WF      WF62458   3.579  20.352   8.734 -0.1069 -0.1396  0.1767
    1WF      WF62459  26.272  16.234   7.838 -0.1523  0.3358 -0.2038
    1WF      WF62460  28.342   3.782   9.403  0.2982 -0.2733 -0.1208
    1WF      WF62461   8.198   3.574   3.465  0.0156 -0.1310  0.0999
    1WF      WF62462  20.147  24.017   2.007 -0.0063  0.0349 -0.1472
    1WF      WF62463  28.355   6.789   1.579 -0.0241  0.5681  0.0569
    1WF      WF62464  23.959  20.095   7.178  0.1253  0.0227  0.0075
    1WF      WF62465  20.391   2.475   0.446 -0.3846 -0.1399 -0.1214
    1WF      WF62466  18.349  28.536   2.057  0.0261  0.4017  0.1381
    1WF      WF62467  20.093  17.181   9.272  0.3220  0.0318 -0.1149
    1WF      WF62468  26.507  10.581   0.493  0.0019 -0.2608  0.1312
    1WF      WF62469   1.196   5.050   5.883 -0.1188  0.1733 -0.1134
    1WF      WF62470   7.416  17.706   8.102 -0.0992 -0.3831 -0.3120
    1WF      WF62471  14.835   6.735   2.033 -0.0044  0.1397 -0.0090
    1WF      WF62472  12.505   6.351   9.210  0.1387 -0.0556  0.0558
    1WF      WF62473  29.336  10.993   0.557  0.0360 -0.1171  0.1338
    1WF      WF62474  20.576  24.251   2.050 -0.2104 -0.1259 -0.2693
    1WF      WF62475   1.862  22.298   8.679  0.1247 -0.2042  0.1327
    1WF      WF62476  27.338   2.030   7.893  0.1360 -0.0794  0.4293
    1WF      WF62477  24.036  22.778   9.572  0.1047  0.0867  0.2370
    1WF      WF62478  25.814   8.593   1.218 -0.0091 -0.0189 -0.3150
    1WF      WF62479  23.498  12.163   0.971  0.4461  0.1092  0.0396
    1WF      WF62480  10.930  13.037   0.947 -0.2452  0.3719  0.0109
    1WF      WF62481   9.000  16.527   9.602 -0.0022 -0.0302 -0.0349
    1WF      WF62482  11.093  15.418   1.140 -0.1413  0.0238 -0.0429
    1WF      WF62483  15.760  16.336   8.839 -0.1350 -0.0067  0.0439
    1WF      WF62484  15.126   4.624   0.601  0.2704  0.1150 -0.1795
    1WF      WF62485   3.053  19.489   9.152  0.2604 -0.2571  0.3182
    1WF      WF62486  13.041   4.581   3.573 -0.0092  0.3518 -0.0455
    1WF      WF62487  10.007   0.494   1.725 -0.0673  0.2294 -0.0647
    1WF      WF62488  13.277  24.531   1.575 -0.1594  0.0071  0.3438
    1WF      WF62489   1.551   4.070   7.158  0.1298 -0.0259 -0.0139
    1WF      WF62490  25.436  11.144   0.213  0.0509 -0.0588  0.1407
    1WF      WF62491  17.602  22.147   8.296  0.0023  0.1633 -0.2770
    1WF      WF62492  26.850  19.946   1.811 -0.1589  0.0170  0.0570
    1WF      WF62493  27.374   4.603   9.108 -0.0425 -0.2188  0.1997
    1WF      WF62494  10.480   3.697   0.806  0.0954  0.2218 -0.4016
    1WF      WF62495   6.860  11.145   0.010  0.1382  0.2888  0.1465
    1WF      WF62496  13.456  19.291   0.862  0.1033 -0.1769 -0.0180
    1WF      WF62497  17.062   0.574   2.219 -0.3108 -0.2563 -0.1017
    1WF      WF62498   9.681   7.651   1.610  0.0869 -0.0517 -0.1588
    1WF      WF62499  10.861  24.206   0.490  0.3719 -0.0295 -0.0278
    1WF      WF62500   4.444  13.448   0.688  0.1389  0.0095  0.1169
    1WF      WF62501  25.669  29.243   8.099 -0.1262 -0.1186 -0.1470
    1WF      WF62502  16.456  11.754   0.200  0.0248 -0.0128  0.0897
    1WF      WF62503  22.576  16.756   8.040  0.2273  0.2502 -0.1257
    1WF      WF62504  27.678   9.466   0.354  0.1190 -0.1875 -0.1761
    1WF      WF62505  11.426   2.923   0.102 -0.0611  0.2057  0.3243
    1WF      WF62506   3.230  27.543   0.318 -0.1622 -0.0962  0.1007
    1WF      WF62507  22.470   0.727   8.173 -0.0632 -0.0852  0.2147
    1WF      WF62508  14.443  23.166   1.301 -0.2007  0.0065 -0.1245
    1WF      WF62509   0.370  23.014   0.334  0.1079  0.0216  0.1665
    1WF      WF62510   5.275  26.132   0.274  0.2395  0.4897  0.0200
    1WF      WF62511  24.974  10.129   9.505 -0.1290 -0.0799 -0.1465
    1WF      WF62512   6.834  12.433   8.572 -0.0417 -0.1071  0.2926
    1WF      WF62513   1.165  27.711   8.258 -0.1367 -0.1166  0.0810
    1WF      WF62514  20.086   7.311   1.726 -0.1916  0.0029  0.1025
    1WF      WF62515  23.820  22.456   1.302 -0.0516  0.2251  0.0169
    1WF      WF62516   7.854   7.599   1.449  0.1878 -0.0628  0.1845
    1WF      WF62517  19.930  21.355   0.853 -0.3452 -0.0798  0.0248
    1WF      WF62518  12.742   5.791   1.761 -0.2346 -0.0929  0.3104
    1WF      WF62519  22.609  15.559   8.195  0.3220 -0.4713 -0.0316
    1WF      WF62520  27.967  11.073   9.307  0.0064  0.1214  0.0978
    1WF      WF62521  12.926  12.305   1.240  0.0246 -0.2183 -0.1234
    1WF      WF62522   9.620  22.499   8.164 -0.0990  0.3420 -0.1314
    1WF      WF62523  16.590   5.205   8.463  0.1782  0.2763  0.1133
    1WF      WF62524  11.155   8.764   7.292 -0.0093 -0.0516  0.1381
    1WF      WF62525  25.591   4.781   1.514 -0.0829 -0.1252  0.2592
    1WF      WF62526  14.525  15.920   8.596 -0.0035 -0.2136 -0.2542
    1WF      WF62527  15.964  19.618   9.652  0.0285 -0.2137  0.0382
    1WF      WF62528  17.070   7.094   0.721 -0.0000  0.0370  0.0274
    1WF      WF62529  21.589  18.718   1.372  0.0133  0.4357 -0.2900
    1WF      WF62530  26.969   8.050   9.485  0.2627 -0.0121 -0.2273
    1WF      WF62531  12.479   0.375   0.903 -0.0030 -0.2542 -0.3447
    1WF      WF62532   5.693  22.370   3.010 -0.3278 -0.0020 -0.0142
    1WF      WF62533   5.650  11.720   1.104  0.3245  0.1243  0.0936
    1WF      WF62534  25.347  21.986   8.294 -0.1146 -0.0584  0.1847
    1WF      WF62535   9.817   7.321   9.374  0.0311  0.0411 -0.0064
    1WF      WF62536  28.221  26.983   9.149 -0.2983  0.1869 -0.2704
    1WF      WF62537  15.999   7.783   9.350 -0.1777  0.4294  0.4893
    1WF      WF62538  28.345  16.041   8.593 -0.1514  0.5494  0.3453
    1WF      WF62539  10.447  27.659   2.636 -0.0229 -0.3676 -0.0433
    1WF      WF62540   2.940  15.057   9.000 -0.1951  0.0100  0.0497
    1WF      WF62541  28.146   0.837   2.172  0.0305  0.2185 -0.2866
    1WF      WF62542  15.571   7.850   9.673 -0.2563 -0.4604 -0.1171
    1WF      WF62543   2.744   4.219   1.010  0.0260  0.1540 -0.0580
    1WF      WF62544  27.135  23.924   1.610  0.1088  0.0309  0.1510
    1WF      WF62545  16.120  26.959   0.226 -0.1457  0.0139 -0.0470
    1WF      WF62546  17.419  15.369   8.988  0.2207 -0.2101 -0.0669
    1WF      WF62547  12.298   4.995   7.573  0.0130 -0.1979 -0.2419
    1WF      WF62548   8.018  24.207   9.463  0.2608  0.2897 -0.0341
    1WF      WF62549  21.209  10.810   8.210 -0.1858  0.0411  0.0108
    1WF      WF62550  14.904  12.010   2.884  0.0033 -0.3554  0.1907
    1WF      WF62551  19.042  13.114   0.924 -0.2121 -0.1127  0.2392
    1WF      WF62552   7.276   6.238   1.380 -0.0987 -0.0276 -0.1054
    1WF      WF62553  15.591   0.379   3.389 -0.1775  0.0740 -0.0160
    1WF      WF62554  23.666  21.370   3.083  0.0123  0.0326 -0.0962
    1WF      WF62555  10.084  20.597   0.736  0.0725 -0.1562 -0.0965
    1WF      WF62556  21.805  19.971   7.500 -0.2541  0.0886 -0.0545
    1WF      WF62557  29.101  14.075   9.061 -0.0402  0.0560  0.0306
    1WF      WF62558  25.113  20.060   7.930 -0.0589  0.0735  0.1835
    1WF      WF62559  25.393  19.535   7.892  0.2247 -0.0533 -0.3634
    1WF      WF62560  24.045  13.817   0.154  0.1505  0.0593 -0.1941
    1WF      WF62561  28.505   4.656   8.741  0.0394  0.0983  0.0378
    1WF      WF62562   7.232   9.134   7.978  0.1215 -0.1338 -0.1961
    1WF      WF62563  15.511  13.626   9.485 -0.2778  0.3620 -0.1129
    1WF      WF62564  27.402  13.020   8.852 -0.1771  0.0738  0.0346
    1WF      WF62565   4.666  10.996   6.434 -0.1321  0.2895 -0.2391
    1WF      WF62566  27.468  16.732   0.204  0.2242  0.0451 -0.0902
    1WF      WF62567  13.835   4.152   9.486 -0.2405  0.3634  0.2759
    1WF      WF62568  25.629  13.698   8.208  0.0690  0.0372  0.0793
    1WF      WF62569  11.876  19.874   9.255 -0.1075 -0.0533  0.1848
    1WF      WF62570  28.826  11.233   1.809  0.2976  0.2101  0.1054
    1WF      WF62571  21.205  11.285   8.218  0.5322 -0.0382 -0.0788
    1WF      WF62572   5.286  18.127   7.115  0.0928  0.0913 -0.3117
    1WF      WF62573  19.150   5.773   9.109 -0.1191  0.0791  0.0738
    1WF      WF62574  27.259  19.390   2.156 -0.1401 -0.0724 -0.1700
    1WF      WF62575  25.248  22.251   8.691  0.1110 -0.1139  0.2386
    1WF      WF62576   7.918  27.225   0.202  0.0118  0.0443  0.4704
    1WF      WF62577  19.551  10.237   8.427  0.2168  0.3670  0.0987
    1WF      WF62578  21.134  21.007   7.699  0.1402  0.0590  0.0394
    1WF      WF62579  10.298   7.247   2.689  0.0524 -0.0254 -0.2749
    1WF      WF62580  17.233   6.924   1.175  0.2669  0.0982  0.0511
    1WF      WF62581  10.052  10.172   1.793 -0.2670  0.0338  0.1370
    1WF      WF62582  26.643  10.927   7.510 -0.3717 -0.4173  0.2102
    1WF      WF62583   2.318  23.761   9.376  0.0554  0.1963 -0.3231
    1WF      WF62584   2.386  10.709   8.702  0.2378  0.0544 -0.3390
    1WF      WF62585  15.589  11.116   8.687  0.1568 -0.0532  0.1091
    1WF      WF62586  26.683   0.132   7.949 -0.0028 -0.1648 -0.0728
    1WF      WF62587  13.772  24.112   0.063 -0.0262  0.2141  0.1589
    1WF      WF62588   9.524  18.579   9.030  0.0057  0.1042  0.0605
    1WF      WF62589  13.600   8.578   9.263 -0.2157  0.2474  0.0405
    1WF      WF62590   6.861   7.045   8.828  0.1718 -0.1046 -0.1804
    1WF      WF62591  26.656  27.413   7.032 -0.0449  0.1012 -0.0610
    1WF      WF62592   5.191   9.809   7.404 -0.0519 -0.3505  0.1682
    1WF      WF62593  13.315  10.359   0.283 -0.1813 -0.0656  0.2130
    1WF      WF62594  20.462   3.071   0.596  0.0052  0.0394 -0.0023
    1WF      WF62595   4.849  12.639   1.140  0.1680  0.0972  0.2714
    1WF      WF62596  26.988   1.696   9.687 -0.3752  0.1648  0.3978
    1WF      WF62597  26.266  10.763   7.918  0.3361 -0.3384 -0.1334
    1WF      WF62598  10.790   7.926   1.265 -0.0285  0.0930  0.2650
    1WF      WF62599  12.269   2.382   0.793 -0.0628 -0.2898  0.1340
    1WF      WF62600  10.870   7.457   1.051 -0.0995 -0.0919 -0.1471
    1WF      WF62601  23.992   3.377   1.417  0.1126  0.2644  0.2555
    1WF      WF62602  10.282   1.785   0.568  0.0629 -0.0115  0.3574
    1WF      WF62603  29.036  20.308   5.909 -0.1426  0.1099  0.2044
    1WF      WF62604  11.032  10.147   8.259  0.0626 -0.2931  0.0260
    1WF      WF62605  18.889   6.908   8.999  0.1112  0.0837  0.0472
    1WF      WF62606   0.213  12.272   9.410  0.2260 -0.1154  0.1212
    1WF      WF62607  18.171  25.956   8.432 -0.1282  0.0158  0.0396
    1WF      WF62608  18.996  23.024   0.423  0.2031 -0.3168 -0.2787
    1WF      WF62609   2.031  14.685   7.492 -0.0113 -0.1203  0.2930
    1WF      WF62610  18.628  19.988   3.069  0.0193 -0.1758 -0.2397
    1WF      WF62611  28.876   2.683   1.049  0.0993  0.0016 -0.2449
    1WF      WF62612   9.920   7.941   8.905  0.0525  0.0183  0.0021
    1WF      WF62613   7.518   4.676   2.028 -0.0612 -0.1876  0.2076
    1WF      WF62614   3.216   3.084   3.066 -0.2866  0.0797 -0.3171
    1WF      WF62615  23.476  15.638   0.417  0.1365  0.1561 -0.1212
    1WF      WF62616  12.562   6.758   9.552  0.0104 -0.1014  0.1328
    1WF      WF62617  26.474  19.657   7.854 -0.3420  0.1791  0.0605
    1WF      WF62618  13.346   0.527   9.173 -0.0786 -0.0212 -0.1454
    1WF      WF62619  14.452  24.963   8.954 -0.3177 -0.3406 -0.0710
    1WF      WF62620   0.004  18.580   6.782 -0.1078 -0.0659  0.0251
    1WF      WF62621  16.323   6.011   2.765 -0.0119 -0.1388 -0.3583
    1WF      WF62622  21.627  11.028   9.336  0.0718  0.1431  0.3478
    1WF      WF62623   0.207  18.264   7.109  0.0203 -0.0461  0.2046
    1WF      WF62624  14.469  10.230   1.740 -0.1006  0.0031 -0.0225
    1WF      WF62625  10.613   8.990   0.693 -0.0728 -0.1370 -0.1712
    1WF      WF62626   8.035   8.982   1.551  0.1134 -0.0696  0.0605
    1WF      WF62627  10.145   0.131   9.052  0.0305 -0.0632 -0.0372
    1WF      WF62628  28.666  27.577   8.320  0.0995  0.0934 -0.0421
    1WF      WF62629  13.921  26.270   2.599  0.0025  0.0013 -0.5455
    1WF      WF62630  14.586   6.692   3.565 -0.1204  0.0985 -0.0866
    1WF      WF62631   6.912   1.786   1.892 -0.0434  0.0381 -0.2287
    1WF      WF62632   5.288   1.977   0.280 -0.0934 -0.1272 -0.0424
    1WF      WF62633  18.091  20.709   1.322  0.2871  0.1654 -0.0300
    1WF      WF62634   7.353  28.553   9.181  0.0234 -0.0389  0.0253
    1WF      WF62635   5.684   1.627   1.501  0.0214 -0.0651  0.0653
    1WF      WF62636   5.100   1.977   7.611  0.3200 -0.1218  0.0713
    1WF      WF62637  23.278   5.028   1.316 -0.4290  0.0184  0.1637
    1WF      WF62638  29.188   2.858   8.797  0.1236 -0.2652 -0.1167
    1WF      WF62639  26.628  26.898   0.652  0.1847  0.0787 -0.0206
    1WF      WF62640  24.529   7.244   6.646  0.0357 -0.0410  0.2550
    1WF      WF62641  23.720  18.630   7.463 -0.0927 -0.0090 -0.1469
    1WF      WF62642   1.494  11.843   7.220 -0.0538  0.1540  0.1853
    1WF      WF62643   3.503  25.753   1.599  0.2112  0.3663 -0.1564
    1WF      WF62644  27.396  13.437   8.559  0.0214  0.0166 -0.0376
    1WF      WF62645   2.264  28.073   0.642  0.1600 -0.0042  0.1024
    1WF      WF62646  11.146  27.029   9.176 -0.4310  0.1562  0.1840
    1WF      WF62647   2.048   3.222   9.017 -0.2007 -0.0002 -0.0397
    1WF      WF62648   6.978   2.667   8.640  0.1616 -0.2110 -0.1315
    1WF      WF62649  12.859   2.370   8.451 -0.0221 -0.0704 -0.0076
    1WF      WF62650  24.018  26.228   8.992  0.1762  0.1748 -0.1474
    1WF      WF62651  29.099  18.005   0.482 -0.0910 -0.3608  0.1484
    1WF      WF62652  16.005   4.399   1.871  0.1504  0.0904  0.1673
    1WF      WF62653  21.790  16.375   1.730 -0.0737  0.3671 -0.1038
    1WF      WF62654  26.597  18.246   2.391 -0.1963 -0.0753 -0.1503
    1WF      WF62655  19.984   2.539   6.586  0.3412  0.0055  0.1344
    1WF      WF62656  14.165  22.223   8.682  0.1428  0.0306  0.0896
    1WF      WF62657   1.955   7.106   8.041  0.1987  0.0753 -0.1201
    1WF      WF62658   4.536  24.799   0.902  0.3868  0.2031  0.0316
    1WF      WF62659  23.680  15.603   6.620 -0.1850  0.0438  0.2284
    1WF      WF62660  23.454   3.783   8.718 -0.0707 -0.2984 -0.0141
    1WF      WF62661   2.036   3.181   8.553 -0.2475 -0.0018  0.3708
    1WF      WF62662  21.618  18.341   9.557  0.0599 -0.1484  0.1256
    1WF      WF62663  27.288   2.534   7.583  0.3647  0.1490 -0.2542
    1WF      WF62664  16.721  24.284   8.892  0.2330  0.0112 -0.1359
    1WF      WF62665  27.336  19.827   1.946 -0.0807 -0.0261  0.1884
    1WF      WF62666   2.556  28.985   8.283  0.3049  0.2612  0.0813
    1WF      WF62667   6.205  23.903   7.988 -0.1743 -0.0735  0.0074
    1WF      WF62668  16.158   0.765   9.425  0.0185  0.1516  0.0077
    1WF      WF62669   5.239   4.688   8.957 -0.0976 -0.0948  0.1877
    1WF      WF62670  18.382  21.093   8.613 -0.0747  0.1484 -0.1122
    1WF      WF62671  22.065  14.226   8.008 -0.1597 -0.2107 -0.1499
    1WF      WF62672  17.408  14.060   1.596 -0.0506 -0.1876  0.0771
    1WF      WF62673  21.212  17.283   0.242  0.1415 -0.3616  0.2027
    1WF      WF62674  28.197  21.816   1.252  0.0450  0.2252  0.1805
    1WF      WF62675  10.144   8.973   0.813  0.2378  0.2573  0.1009
    1WF      WF62676  23.487   0.134   8.115 -0.0472 -0.0756 -0.0175
    1WF      WF62677   3.663  23.807   6.893 -0.1121  0.0306 -0.0511
    1WF      WF62678  22.504   6.805   1.967 -0.0302 -0.1059 -0.0353
    1WF      WF62679  20.244   0.047   8.640 -0.3288  0.0548 -0.0777
    1WF      WF62680   0.435  23.187   1.554 -0.4911  0.1348  0.1165
    1WF      WF62681  24.152  12.951   9.062 -0.1084 -0.0291 -0.0905
    1WF      WF62682  26.391  22.427   0.844 -0.0863 -0.2275 -0.3122
    1WF      WF62683   4.936  19.469   0.274 -0.1771  0.0811  0.2127
    1WF      WF62684  25.225  16.955   8.664  0.2182  0.4304  0.1964
    1WF      WF62685  10.607  13.457   8.238  0.2258  0.0232 -0.0314
    1WF      WF62686  16.222  17.682   9.239 -0.1306  0.1508 -0.1578
    1WF      WF62687  11.035   4.336   0.249  0.1149 -0.1583 -0.1239
    1WF      WF62688   7.909   5.484   9.074 -0.1900 -0.2201  0.0356
    1WF      WF62689  21.159  18.471   1.137  0.4475 -0.3112  0.1112
    1WF      WF62690  24.010  15.821   1.454  0.0629  0.2617  0.1049
    1WF      WF62691  23.298  18.993   3.261  0.0057  0.1452 -0.1889
    1WF      WF62692   9.921  27.806   8.925 -0.0374 -0.1337 -0.3190
    1WF      WF62693  28.814  11.883   0.167 -0.1438  0.0222  0.1409
    1WF      WF62694  23.404  27.770   0.970 -0.0178 -0.0194  0.1978
    1WF      WF62695  26.947   1.780   8.135 -0.2597  0.0396 -0.1564
    1WF      WF62696  11.589  18.094   1.483  0.1216 -0.0826 -0.1959
    1WF      WF62697  15.564   4.350   2.485  0.0682  0.1476  0.0635
    1WF      WF62698   4.805  13.135   0.882 -0.1735 -0.1364 -0.1160
    1WF      WF62699   6.362   3.448   0.568  0.0694 -0.1147  0.3814
    1WF      WF62700  17.001   5.269   9.663  0.0361 -0.2616  0.0854
    1WF      WF62701  11.556  25.357   8.707  0.0625 -0.1647  0.1755
    1WF      WF62702  11.948  18.897   1.502  0.5146  0.1351  0.0842
    1WF      WF62703   1.532   9.608   8.065 -0.2326  0.1938  0.3770
    1WF      WF62704  28.979  12.147   1.658 -0.4566 -0.0429  0.0478
    1WF      WF62705   5.555  27.692   9.501 -0.1139  0.2556  0.2586
    1WF      WF62706  11.260  25.030   9.031 -0.3641  0.0437 -0.1064
    1WF      WF62707  18.322  16.052   1.195  0.3542  0.3357  0.3027
    1WF      WF62708   9.107   5.957   9.667 -0.1952  0.1195 -0.1170
    1WF      WF62709  17.151  21.402   8.744 -0.0961 -0.1003  0.1700
    1WF      WF62710  15.566   1.685   9.062 -0.0108 -0.1532 -0.2834
    1WF      WF62711  29.109  12.550   7.966 -0.0906 -0.0864 -0.0957
    1WF      WF62712  18.537   4.167   8.319 -0.0707  0.2833  0.0474
    1WF      WF62713  21.276   0.654   8.780  0.3326 -0.1438  0.0162
    1WF      WF62714   8.476   9.823   8.065  0.1360  0.2877 -0.2340
    1WF      WF62715  28.692  11.725   1.589 -0.0571 -0.0954 -0.0785
    1WF      WF62716  19.009  12.762   0.525 -0.0050  0.0219 -0.0168
    1WF      WF62717  28.179  26.800   0.088 -0.0370  0.1609  0.2436
    1WF      WF62718  11.899   3.845   9.261 -0.1057 -0.0227  0.1354
    1WF      WF62719  12.242  23.316   1.798 -0.0728  0.1403  0.0211
    1WF      WF62720  22.879  22.956   3.671 -0.0528  0.0592 -0.0223
    1WF      WF62721   9.817  17.449   8.648  0.2411 -0.0846 -0.0611
    1WF      WF62722   0.771  25.830   0.060 -0.1700  0.0168 -0.1314
    1WF      WF62723   5.475   7.385   1.218  0.1549 -0.1207 -0.0370
    1WF      WF62724  15.034  21.771   0.564  0.0593  0.3125 -0.1104
    1WF      WF62725  28.263  10.676   9.185  0.1422 -0.0673 -0.2855
    1WF      WF62726  29.301  24.967   8.220 -0.0237 -0.3325  0.1113
    1WF      WF62727   4.186  24.539   8.367  0.0068 -0.2034 -0.0821
    1WF      WF62728  25.426  18.718   3.002 -0.0232  0.0909  0.0945
    1WF      WF62729  19.163  25.785   8.685  0.1042 -0.0530  0.2618
    1WF      WF62730  10.915  26.561   8.947 -0.0919 -0.0956 -0.1368
    1WF      WF62731   3.312   9.801   8.250  0.1608 -0.0705  0.1900
    1WF      WF62732  23.288  16.703   9.040 -0.0365 -0.0649  0.0612
    1WF      WF62733  20.940  13.601   0.059 -0.3346 -0.1310  0.1612
    1WF      WF62734   7.200   9.140   6.565  0.1777 -0.0643 -0.3336
    1WF      WF62735  19.135  22.569   1.330  0.3245 -0.0727 -0.1452
    1WF      WF62736  11.031   3.099   1.305  0.1111  0.4849  0.0659
    1WF      WF62737  13.692   8.101   8.394 -0.0097  0.1494  0.3389
    1WF      WF62738  10.996  23.745   8.329 -0.1004 -0.0760  0.0247
    1WF      WF62739  19.304  28.548   6.813 -0.1436 -0.4645 -0.1151
    1WF      WF62740  25.676   3.056   0.137  0.1145 -0.1426  0.2689
    1WF      WF62741  17.997   4.458   8.494  0.0059 -0.2049  0.0693
    1WF      WF62742   5.053  26.098   3.043  0.0380  0.0968  0.0633
    1WF      WF62743  18.944  27.747   9.245 -0.3087  0.0701  0.0552
    1WF      WF62744  17.118  11.228   9.225 -0.0127 -0.1627 -0.4103
    1WF      WF62745   8.345  23.692   7.067 -0.2622 -0.0813 -0.3645
    1WF      WF62746   7.960   0.308   9.091 -0.2074  0.1035  0.0410
    1WF      WF62747  18.939  23.403   8.551  0.2377 -0.1997  0.1786
    1WF      WF62748  16.782  21.162   1.052 -0.0467  0.0287 -0.3100
    1WF      WF62749   9.082  14.473   0.282  0.2706  0.0493 -0.1096
    1WF      WF62750  15.844   9.005   2.599 -0.0716  0.2866 -0.0905
    1WF      WF62751  12.612  14.709   0.070  0.0502  0.1011 -0.0397
    1WF      WF62752  19.747   0.018   8.741  0.2139  0.4913  0.0941
    1WF      WF62753   7.939  18.813   7.568 -0.2145  0.1543  0.0606
    1WF      WF62754  27.243  27.521   8.494  0.2392 -0.0466 -0.2795
    1WF      WF62755  26.346  10.192   7.884  0.0060 -0.1316  0.1083
    1WF      WF62756  15.447  21.793   0.879 -0.0755 -0.0148  0.3000
    1WF      WF62757  26.930  28.619   7.917 -0.1991 -0.0311  0.2488
    1WF      WF62758  25.276  25.112   1.063  0.2613 -0.1955 -0.2011
    1WF      WF62759  16.511  14.329   1.266 -0.2295 -0.0098 -0.0455
    1WF      WF62760  26.002  26.672   0.104  0.1274  0.4202 -0.2578
    1WF      WF62761  29.097   9.578   1.043 -0.0221 -0.1606  0.1639
    1WF      WF62762  25.684  22.320   8.495  0.1331 -0.1860 -0.1626
    1WF      WF62763  22.559  28.836   7.838  0.0565  0.0882 -0.0011
    1WF      WF62764  22.852  23.024   2.296  0.0878  0.0920 -0.3325
    1WF      WF62765  29.266  17.505   0.422  0.2497  0.2553  0.1569
    1WF      WF62766  12.914  15.878   8.603 -0.1277  0.2903  0.0553
    1WF      WF62767   7.471   6.172   0.611 -0.0721  0.1177  0.1586
    1WF      WF62768   9.491  12.644   0.688 -0.2506  0.0275  0.0007
    1WF      WF62769   3.610  16.362   7.373 -0.0579  0.1226 -0.4952
    1WF      WF62770   4.356   5.447   9.292  0.2706  0.0263 -0.0687
    1WF      WF62771   4.086  12.760   1.925  0.0295  0.2975 -0.0177
    1WF      WF62772  20.574  18.818   3.271 -0.2207 -0.1149  0.1182
    1WF      WF62773   1.293  11.629   8.089  0.1346  0.1561  0.1622
    1WF      WF62774  10.784  10.426   8.612 -0.1255 -0.0451  0.1186
    1WF      WF62775   6.776  12.911   7.474  0.1718  0.4745 -0.1322
    1WF      WF62776   5.934  21.868   7.423  0.1708  0.0497  0.5631
    1WF      WF62777  17.180  27.403   1.258  0.0126  0.0764 -0.1484
    1WF      WF62778  22.923   8.016   0.501 -0.3928 -0.2739  0.1897
    1WF      WF62779  21.502  13.907   6.748  0.0818 -0.1398 -0.0453
    1WF      WF62780   3.541  18.227   2.907 -0.1373 -0.0983 -0.1218
    1WF      WF62781   1.025  20.159   6.140 -0.1640 -0.0992 -0.2930
    1WF      WF62782   2.621  13.299   8.125 -0.2180 -0.2090 -0.1765
    1WF      WF62783  18.963   6.404   9.118 -0.1320  0.0826  0.0293
    1WF      WF62784   1.311  13.436   0.396  0.3152  0.1299  0.1774
    1WF      WF62785  29.164  23.532   8.935 -0.2325  0.2264 -0.1245
    1WF      WF62786  14.026  15.014   9.451  0.0973  0.0829  0.0218
    1WF      WF62787  13.051   2.810   4.010  0.0663  0.3743 -0.0460
    1WF      WF62788  19.102  26.337   9.503  0.1578 -0.0816 -0.1787
    1WF      WF62789  25.429  20.381   8.328 -0.2719  0.1251 -0.1311
    1WF      WF62790  18.536   3.677   8.061  0.1472 -0.2527  0.0690
    1WF      WF62791  24.556   9.749   9.479  0.2444 -0.3022 -0.0745
    1WF      WF62792  23.956   9.216   7.531 -0.3071  0.2625  0.0940
    1WF      WF62793   6.013  26.935   8.627  0.1014  0.0688 -0.0267
    1WF      WF62794  12.095  18.481   1.654 -0.0731  0.0567  0.3075
    1WF      WF62795  23.118   9.883   0.592 -0.0248  0.0886  0.1651
    1WF      WF62796   6.209  12.468   0.241 -0.0335  0.0862 -0.2482
    1WF      WF62797  12.640  15.597   9.278 -0.0202  0.2073 -0.0909
    1WF      WF62798   2.050  25.775   0.155 -0.3420 -0.2269  0.1920
    1WF      WF62799  15.701  18.926   0.463 -0.1880 -0.1300 -0.1608
    1WF      WF62800  10.503  15.458   1.115 -0.0631  0.3905 -0.3183
    1WF      WF62801  19.379   9.683   8.642  0.2009  0.0959 -0.1531
    1WF      WF62802  16.621   7.219   8.317 -0.1911 -0.0037 -0.1029
    1WF      WF62803  15.089  18.175   2.935 -0.3707  0.3994  0.1770
    1WF      WF62804  26.158   9.088   5.942  0.0935 -0.2048  0.1370
    1WF      WF62805  12.678   7.224   1.984  0.1110  0.2545 -0.0129
    1WF      WF62806  11.723  22.356   1.187 -0.0608  0.0010 -0.1783
    1WF      WF62807  14.511   7.030   1.815 -0.0478 -0.2920  0.1723
    1WF      WF62808  10.591  18.491   9.372 -0.1899  0.0670  0.2598
    1WF      WF62809  24.510  24.165   7.976  0.2569 -0.0294 -0.0584
    1WF      WF62810  26.288  22.137   0.494 -0.1271  0.0717 -0.0812
    1WF      WF62811  20.534  27.060   7.558  0.1590 -0.0900 -0.3885
    1WF      WF62812   6.880   1.238   2.236 -0.2147  0.0585  0.0742
    1WF      WF62813  13.688  16.275   0.625 -0.3356  0.1002  0.2215
    1WF      WF62814  20.080  22.848   8.828  0.1330 -0.0089  0.3269
    1WF      WF62815  15.528  10.968   2.643 -0.0842  0.1208  0.1817
    1WF      WF62816  13.901  25.726   9.198  0.0107  0.3047  0.3572
    1WF      WF62817   4.783   5.769   0.977 -0.0877  0.0730  0.0170
    1WF      WF62818  14.483  20.765   8.092  0.1780  0.1904  0.3195
    1WF      WF62819  25.546   3.054   8.641  0.0592 -0.2188  0.2475
    1WF      WF62820  20.957   6.485   8.162  0.4158  0.2560  0.3641
    1WF      WF62821  22.411  15.016   9.494  0.0506  0.0379  0.2296
    1WF      WF62822  11.643  27.560   4.246  0.2067  0.3059 -0.1497
    1WF      WF62823   1.924  21.165   7.386 -0.2505 -0.0257 -0.0110
    1WF      WF62824  25.302  16.179   8.518 -0.2479 -0.1713 -0.1656
    1WF      WF62825  22.906  20.869   9.473 -0.1098  0.1551  0.0170
    1WF      WF62826  19.690  18.264   8.184  0.3847 -0.0490 -0.0203
    1WF      WF62827  15.708  15.089   0.717 -0.0986  0.1103 -0.1540
    1WF      WF62828   3.390  21.556   7.662 -0.1246  0.0167 -0.0009
    1WF      WF62829   0.718  21.362   8.142  0.0531 -0.3082 -0.1104
    1WF      WF62830   5.018   8.281   0.639  0.0886  0.1199  0.0913
    1WF      WF62831  22.547   9.149   8.652 -0.2331 -0.1055  0.1045
    1WF      WF62832  21.210   9.852   0.216 -0.0954  0.0956  0.2781
    1WF      WF62833  22.470   8.650   9.620  0.1702 -0.0037  0.2530
    1WF      WF62834  25.252   7.306   0.069  0.2791  0.3000 -0.3112
    1WF      WF62835  16.651  28.983   9.432  0.0448  0.3495  0.1341
    1WF      WF62836   1.143  19.969   2.914 -0.0871  0.0007 -0.0984
    1WF      WF62837  23.280  22.218   1.286  0.1184  0.0993  0.3628
    1WF      WF62838  11.598  18.069   8.302  0.1879 -0.0332  0.0056
    1WF      WF62839  14.311   2.599   0.376 -0.0799  0.0066 -0.2061
    1WF      WF62840  14.233   4.761   3.952  0.2801 -0.6390 -0.0689
    1WF      WF62841  23.100   9.521   7.642 -0.6599 -0.3073 -0.1010
    1WF      WF62842  19.526   7.969   0.314  0.1084 -0.1306  0.3279
    1WF      WF62843   8.966  28.636   9.270 -0.0867  0.1587 -0.1945
    1WF      WF62844  21.330  23.688   3.147 -0.1331  0.1565 -0.0185
    1WF      WF62845  21.335  24.272   1.550  0.3241 -0.2704  0.0893
    1WF      WF62846  27.052   5.229   9.028 -0.0587  0.1984  0.2550
    1WF      WF62847   4.942  28.773   3.717 -0.1721  0.2420  0.0623
    1WF      WF62848   8.036  13.091   6.554  0.1590  0.0256  0.4019
    1WF      WF62849  22.161   6.254   9.680  0.1010 -0.0355 -0.0232
    1WF      WF62850  15.812  23.213   0.249 -0.0824  0.3209 -0.0246
    1WF      WF62851  16.774  10.280   9.278  0.1308  0.1219 -0.2076
    1WF      WF62852  24.299   9.686   8.197  0.0060  0.3968  0.0656
    1WF      WF62853  14.171   4.869   1.797 -0.2562 -0.0401 -0.3195
    1WF      WF62854  24.644   5.853   6.505  0.0995 -0.0512  0.0387
    1WF      WF62855  27.512  23.285   0.138 -0.0182 -0.0549  0.0502
    1WF      WF62856  20.869  28.399   1.001  0.1066  0.1499 -0.3880
    1WF      WF62857  18.880  26.857   9.621  0.0207 -0.3456  0.0710
    1WF      WF62858  29.221   3.357   8.606  0.2052 -0.2106 -0.0364
    1WF      WF62859  26.449  10.659   2.119  0.0525  0.0528  0.0153
    1WF      WF62860  21.187   4.855   9.661 -0.1255  0.0803  0.0311
    1WF      WF62861   8.741   4.623   2.994 -0.0274 -0.2734  0.0940
    1WF      WF62862  16.913  16.200   7.999  0.0305 -0.1405  0.0523
    1WF      WF62863  23.272  27.491   0.554 -0.1973 -0.1890 -0.1433
    1WF      WF62864  27.348  16.460   3.253  0.4041  0.3209 -0.0882
    1WF      WF62865   0.840  21.281   7.644  0.0224 -0.1995 -0.2898
    1WF      WF62866  26.281   6.561   2.403  0.3211  0.1318 -0.3110
    1WF      WF62867  25.460  24.076   2.141 -0.1851  0.1684 -0.1203
    1WF      WF62868  25.678   2.416   0.219  0.0797  0.0714 -0.1496
    1WF      WF62869   2.803   1.162   6.454  0.0399  0.2308  0.0202
    1WF      WF62870  13.958  13.080   7.844  0.0059  0.0043 -0.0872
    1WF      WF62871  11.237  26.223   8.808  0.1433 -0.1173 -0.0706
    1WF      WF62872  15.413  14.149   8.329 -0.4035  0.1370 -0.0445
    1WF      WF62873  24.425  18.925   3.183 -0.0034 -0.0837  0.2097
    1WF      WF62874   1.246   1.935   8.472  0.2946 -0.1993 -0.1017
    1WF      WF62875  22.183  11.096   6.151  0.1001 -0.2773 -0.1511
    1WF      WF62876  16.110   9.401   2.457 -0.2115  0.0446  0.1617
    1WF      WF62877   8.748  18.136   8.750 -0.2469 -0.1399  0.0839
    1WF      WF62878  17.078  19.967   1.035  0.2829  0.1748  0.0294
    1WF      WF62879  10.842   7.616   8.810 -0.1534 -0.1471 -0.2009
    1WF      WF62880  20.593   1.361   0.353  0.0104 -0.2283  0.3701
    1WF      WF62881   9.148  16.555   8.566  0.0501  0.3005 -0.2780
    1WF      WF62882  14.914  20.929   7.904  0.2189  0.2866  0.0675
    1WF      WF62883   6.224  23.244   9.000 -0.0238 -0.0744  0.4517
    1WF      WF62884  21.014  21.318   0.388 -0.2602 -0.0553 -0.0225
    1WF      WF62885   4.741  21.353   0.130 -0.0778  0.1204 -0.0689
    1WF      WF62886  10.312  11.872   8.856 -0.0506  0.0244 -0.2313
    1WF      WF62887   7.212  13.517   1.684  0.1747  0.1207 -0.2807
    1WF      WF62888  22.323  13.650   1.461 -0.1465 -0.0297 -0.0516
    1WF      WF62889   3.055   4.764   1.716  0.2269  0.0540 -0.1261
    1WF      WF62890   7.790  25.144   6.423  0.1572 -0.1148 -0.1383
    1WF      WF62891  22.314  19.606   8.563  0.1116 -0.1550 -0.2771
    1WF      WF62892  13.074   7.134   2.247  0.3353  0.0448  0.0870
    1WF      WF62893  14.050  28.028   0.183 -0.1411  0.4792 -0.1658
    1WF      WF62894  25.212  11.241   0.622 -0.0065  0.1995 -0.0559
    1WF      WF62895  23.773  19.021   9.687  0.2814  0.0890 -0.4092
    1WF      WF62896   3.495   5.556   7.537  0.0864 -0.1383 -0.0736
    1WF      WF62897   4.794  26.685   1.106 -0.0981 -0.1148 -0.1671
    1WF      WF62898   1.944   9.364   8.332 -0.2754  0.0370  0.5525
    1WF      WF62899  25.608  15.940   5.827 -0.2325 -0.3267 -0.3999
    1WF      WF62900  28.643  14.663   0.037 -0.4383  0.0325 -0.0087
    1WF      WF62901  24.348  28.721   9.541  0.2765 -0.1985  0.2587
    1WF      WF62902  24.774  15.210   1.357  0.1682  0.0293  0.3268
    1WF      WF62903   3.050  19.772   7.946 -0.0241 -0.1669 -0.1816
    1WF      WF62904   5.503  19.247   8.253 -0.1244 -0.0581  0.1038
    1WF      WF62905  25.303  15.740   0.565  0.0234 -0.1399  0.0343
    1WF      WF62906   6.360   5.618   1.091 -0.5950  0.0098 -0.0782
    1WF      WF62907  15.011   7.982   2.992 -0.1980  0.3081 -0.1553
    1WF      WF62908  16.000  16.361   9.293 -0.0083  0.0554  0.1065
    1WF      WF62909  18.211  10.563   0.498 -0.0840 -0.1506  0.0513
    1WF      WF62910  18.494  10.199   0.714 -0.1681  0.0866  0.2489
    1WF      WF62911  17.538  22.968   2.867  0.0288 -0.1602 -0.0589
    1WF      WF62912  28.325  11.723   8.409  0.3030  0.0647  0.0674
    1WF      WF62913   1.084   4.559   1.593  0.3566 -0.1913 -0.4273
    1WF      WF62914  28.673   3.792   0.864  0.3145 -0.0718 -0.0050
    1WF      WF62915  19.978  20.158   7.182 -0.1820 -0.1748 -0.2249
    1WF      WF62916  24.281   5.946   8.172  0.0864 -0.1174 -0.1585
    1WF      WF62917   8.987   9.778   7.997  0.1703  0.0294  0.3939
    1WF      WF62918   6.245  20.487   9.371  0.0207  0.0419 -0.0073
    1WF      WF62919   8.138  23.165   1.192 -0.0315  0.1518 -0.1249
    1WF      WF62920  24.462  19.280   8.135  0.3477  0.1851 -0.0607
    1WF      WF62921  11.849  29.173   8.982  0.0486  0.0275 -0.1435
    1WF      WF62922  25.225   7.797   8.179  0.1806  0.1224  0.0287
    1WF      WF62923   7.457   2.382   1.465 -0.0956 -0.2849  0.0591
    1WF      WF62924   3.115  21.607   7.232 -0.0785  0.0596  0.2225
    1WF      WF62925   7.378  19.430   5.853 -0.2786  0.0610 -0.0438
    1WF      WF62926  26.072  21.450   7.308 -0.0986 -0.4233 -0.1813
    1WF      WF62927   1.558  12.029   9.249  0.0317 -0.2437  0.0331
    1WF      WF62928  28.271   3.716   6.622 -0.1854  0.2022  0.2667
    1WF      WF62929  17.996   9.322   1.333  0.2012 -0.1297 -0.0032
    1WF      WF62930   9.548   8.488   3.244 -0.1481  0.1207  0.0080
    1WF      WF62931   5.974  17.628   7.984  0.1363  0.2100  0.1612
    1WF      WF62932  21.532  12.946   0.899 -0.0943  0.0800 -0.2652
    1WF      WF62933   3.841  28.306   2.520  0.0958 -0.3889  0.4455
    1WF      WF62934  23.041  10.597   1.528  0.0516  0.2653 -0.3504
    1WF      WF62935  13.954   9.660   7.307  0.0372 -0.2632  0.1807
    1WF      WF62936  24.474   4.776   6.158 -0.2030  0.0260 -0.1782
    1WF      WF62937  25.635  11.834   5.809  0.2068 -0.1980  0.2602
    1WF      WF62938   9.380   4.902   7.379 -0.0053 -0.4016  0.1516
    1WF      WF62939  11.194   8.548   8.894 -0.0433  0.2686 -0.1999
    1WF      WF62940  10.926  29.222   0.340  0.0478  0.0021  0.1811
    1WF      WF62941  19.251   2.426   3.212  0.2289 -0.0109 -0.0202
    1WF      WF62942  22.457  20.892   0.063 -0.1123 -0.0176 -0.2937
    1WF      WF62943   8.652  20.937   9.562  0.3301 -0.0556  0.3269
    1WF      WF62944  17.827  23.878   7.267  0.2313 -0.0672  0.1577
    1WF      WF62945  24.646  21.150   7.894 -0.2651  0.1320 -0.1014
    1WF      WF62946  14.440  13.040   1.550 -0.0547 -0.1651 -0.2142
    1WF      WF62947  22.203  11.255   2.966 -0.3240 -0.1916  0.4655
    1WF      WF62948   4.258   8.592   0.005 -0.1381  0.1927 -0.0235
    1WF      WF62949  28.780  27.965   8.034  0.0907 -0.1010 -0.0180
    1WF      WF62950  26.299  13.408   6.953  0.0223 -0.1415 -0.2027
    1WF      WF62951   0.743   6.714   5.813  0.1359 -0.1576 -0.2541
    1WF      WF62952  23.135  25.400   8.451  0.0872 -0.2325  0.4408
    1WF      WF62953  22.854   2.784   0.070 -0.1246  0.1980  0.0702
    1WF      WF62954  17.024   9.050   1.276 -0.1049 -0.2804 -0.2490
    1WF      WF62955   9.815   8.151   6.569 -0.0094 -0.1047  0.0775
    1WF      WF62956  20.986  22.280   0.194 -0.0765  0.3402  0.2150
    1WF      WF62957  22.631   8.577   8.782 -0.0348 -0.0721  0.2847
    1WF      WF62958   8.751   7.802   8.954 -0.3307  0.1901  0.1143
    1WF      WF62959   0.314  23.698   1.409  0.0997  0.2326  0.2786
    1WF      WF62960   6.091  25.950   0.369  0.0536  0.2782 -0.1063
    1WF      WF62961  23.400   6.843   8.149  0.0805  0.0722  0.0030
    1WF      WF62962  13.217   5.550   1.734 -0.1508 -0.1654 -0.1551
    1WF      WF62963  11.782   6.281   7.823  0.2315 -0.0936 -0.3097
    1WF      WF62964  17.783  15.411   1.361  0.3098  0.0777  0.0990
    1WF      WF62965   7.025  26.209   9.034  0.0314 -0.5032  0.0161
    1WF      WF62966  19.953  11.398   3.171 -0.0834 -0.0414  0.0443
    1WF      WF62967  24.845  17.079   9.018 -0.3781 -0.0473  0.3770
    1WF      WF62968  17.224  25.327   9.552 -0.0731 -0.0969  0.1122
    1WF      WF62969   7.246  22.202   5.930 -0.3950 -0.0670  0.0943
    1WF      WF62970  20.735  19.984   0.825  0.1255 -0.0531  0.0063
    1WF      WF62971   5.850  14.806   8.725 -0.5397  0.0166  0.2044
    1WF      WF62972   5.264  21.991   8.264  0.0790 -0.0730 -0.1062
    1WF      WF62973   4.957  15.064   9.333  0.3205 -0.2049  0.0881
    1WF      WF62974  18.550  23.309   0.292  0.1783 -0.0952  0.1102
    1WF      WF62975   5.436  12.907   8.299  0.4543 -0.0345  0.2766
    1WF      WF62976  15.579   1.357   1.741 -0.4928 -0.0075  0.1317
    1WF      WF62977  23.489  12.639   0.845 -0.0990 -0.1229 -0.1644
    1WF      WF62978   3.236  26.312   8.507 -0.0086  0.0530 -0.2945
    1WF      WF62979  23.259  28.009   9.485  0.3026 -0.1849 -0.0055
    1WF      WF62980  13.465   5.079   1.233 -0.1262 -0.1304  0.2853
    1WF      WF62981   2.386  11.595   0.551 -0.1124  0.0921 -0.3631
    1WF      WF62982  19.571   3.589   9.405 -0.2599 -0.0069 -0.0972
    1WF      WF62983  13.915  20.229   9.494 -0.2217  0.1805 -0.1564
    1WF      WF62984  12.944  18.938   9.438  0.0054 -0.0167 -0.0590
    1WF      WF62985  22.374   8.146   3.085 -0.0850 -0.1902 -0.0295
    1WF      WF62986   1.149   4.929   7.147  0.1879  0.2225  0.0023
    1WF      WF62987   8.055  25.912   7.982  0.0007 -0.3098 -0.0067
    1WF      WF62988  15.510   3.571   9.433 -0.0518  0.0422  0.1435
    1WF      WF62989   7.164  22.349   6.381 -0.0976 -0.2079  0.0508
    1WF      WF62990  17.074  18.993   1.606 -0.0722  0.1079 -0.4678
    1WF      WF62991  20.357  17.722   8.573 -0.1061 -0.1143 -0.0960
    1WF      WF62992  28.607   2.249   0.850 -0.0332 -0.1244  0.1502
    1WF      WF62993  25.449  27.585   9.263  0.2320 -0.1910 -0.0040
    1WF      WF62994  10.509  19.926   2.342  0.2338  0.0929  0.2021
    1WF      WF62995  28.965   2.001   8.081 -0.0070  0.0529  0.2471
    1WF      WF62996  10.357  19.439   2.165 -0.0911 -0.0257  0.3936
    1WF      WF62997   5.724  20.133   0.433 -0.0533 -0.1520 -0.1119
    1WF      WF62998  21.461  14.018   0.640  0.2739  0.1618 -0.0600
    1WF      WF62999   8.365  15.962   8.622 -0.0808  0.3294  0.2753
    1WF      WF63000  11.081  25.296   1.677  0.0622 -0.0559 -0.0125
    1WF      WF63001  23.623   7.420   1.072 -0.1549 -0.0926 -0.0767
    1WF      WF63002   2.509  11.096   0.757  0.2658 -0.0071 -0.0404
    1WF      WF63003   2.715   8.158   2.698  0.1929  0.1252  0.1467
    1WF      WF63004  16.978  22.779   9.006 -0.0237 -0.0821 -0.3130
    1WF      WF63005   5.842  23.170   9.305  0.1227  0.0553  0.1728
    1WF      WF63006  20.909  28.799   0.195  0.0970  0.0896 -0.1111
    1WF      WF63007   7.986  18.568   1.225  0.2289  0.2213  0.4100
    1WF      WF63008  13.918  13.384   9.491  0.1992  0.1843  0.2479
    1WF      WF63009   5.585   7.187   9.686 -0.0120  0.0947  0.1249
    1WF      WF63010   0.346  13.487   0.775 -0.0367 -0.1535 -0.1476
    1WF      WF63011  14.672   4.483   1.793  0.4030 -0.1182  0.0944
    1WF      WF63012  21.295   9.525   9.537 -0.1347 -0.1048  0.0733
    1WF      WF63013  28.867  12.467   8.440 -0.2640 -0.1024 -0.0463
    1WF      WF63014  28.859  10.641   8.483  0.1377 -0.1654 -0.2371
    1WF      WF63015  21.289  18.746   1.811 -0.0304 -0.0890  0.3273
    1WF      WF63016  17.059   5.858   7.870 -0.0026  0.4020  0.2634
    1WF      WF63017  25.303   2.376   7.089 -0.0740 -0.0510 -0.0232
    1WF      WF63018  10.124  11.126   2.449 -0.0378  0.2897 -0.2022
    1WF      WF63019  13.720   3.817   0.250  0.0877 -0.1392  0.2157
    1WF      WF63020  26.119  12.091   9.134  0.1305  0.0778 -0.3216
    1WF      WF63021   7.165  12.157   1.985  0.0466 -0.1800 -0.0319
    1WF      WF63022  26.580   1.647   8.462  0.3393  0.0990  0.2021
    1WF      WF63023  27.698  25.750   2.907 -0.0936  0.2454  0.0160
    1WF      WF63024  28.649   8.897   8.716 -0.1311 -0.1289 -0.2563
    1WF      WF63025  24.781  11.280   8.581 -0.0667 -0.3634  0.0490
    1WF      WF63026   8.056  21.411   7.138 -0.0509 -0.2404  0.2375
    1WF      WF63027  27.683  15.099   7.129  0.0410 -0.1328  0.2345
    1WF      WF63028  23.658  13.354   7.616  0.1565  0.0422 -0.2193
    1WF      WF63029  26.404   7.463   0.491 -0.1312 -0.3926 -0.0420
    1WF      WF63030   8.341   0.417   1.274  0.0748 -0.0921  0.1597
    1WF      WF63031  17.621  13.095   8.350 -0.0806  0.2283 -0.2274
    1WF      WF63032   7.750  26.414   8.938  0.2092 -0.0068  0.2528
    1WF      WF63033  25.627  25.351   0.836 -0.0441 -0.4718  0.1972
    1WF      WF63034   5.522  29.160   1.900  0.0217  0.3448 -0.0579
    1WF      WF63035  13.733   2.956   2.783 -0.1125  0.2217  0.0095
    1WF      WF63036  20.706  25.072   8.196  0.1837 -0.2447 -0.1058
    1WF      WF63037   2.973  26.696   8.233 -0.1905 -0.2039  0.0750
    1WF      WF63038  16.218  16.154   9.685 -0.0658 -0.2204 -0.4721
    1WF      WF63039   1.676  29.003   3.165  0.1642  0.1696 -0.0406
    1WF      WF63040  28.661   1.700   1.312 -0.2315  0.0717 -0.1242
    1WF      WF63041   1.170  16.933   9.650  0.6243 -0.1158  0.4267
    1WF      WF63042   9.992  11.858   9.340 -0.0881  0.1209  0.0157
    1WF      WF63043  15.440   0.535   8.670  0.2083  0.3182 -0.1177
    1WF      WF63044  25.714  20.751   2.163  0.4329  0.0434  0.2179
    1WF      WF63045  28.723   2.229   1.347 -0.1170  0.0017 -0.2584
    1WF      WF63046   2.300   3.275   1.281 -0.1417 -0.1279  0.0043
    1WF      WF63047  20.360  16.155   6.750 -0.2224 -0.3026  0.1523
    1WF      WF63048  22.120   1.904   7.333 -0.1004  0.1423 -0.3633
    1WF      WF63049  25.170   5.088   8.896  0.3589  0.1397  0.1829
    1WF      WF63050  21.459  15.157   8.755  0.0814 -0.2230  0.2284
    1WF      WF63051  12.973   2.899   1.403  0.2250  0.2930 -0.1044
    1WF      WF63052   7.677  15.698   1.581  0.0512 -0.2398  0.2908
    1WF      WF63053  22.082   8.914   7.297 -0.0390 -0.2762  0.1616
    1WF      WF63054  24.716  25.706   1.684  0.3674 -0.1068 -0.0205
    1WF      WF63055  20.302  21.243   0.525 -0.0341  0.0952  0.3401
    1WF      WF63056   7.499  19.933   8.911  0.2974  0.1066 -0.0695
    1WF      WF63057  13.510   9.887   1.021 -0.3417 -0.2266 -0.2891
    1WF      WF63058   1.429  18.366   9.087 -0.3801 -0.3377  0.1013
    1WF      WF63059  15.489  28.494   1.482 -0.1042 -0.0306 -0.3072
    1WF      WF63060  22.246   1.446   7.579  0.0674 -0.0740  0.0126
    1WF      WF63061  16.678  11.736   0.699 -0.1312 -0.1379  0.1285
    1WF      WF63062  16.485   2.493   2.134  0.2715 -0.0983  0.0217
    1WF      WF63063  14.051   2.579   0.843  0.0923 -0.0173  0.0812
    1WF      WF63064  17.293   4.926   0.159 -0.3883  0.0012  0.3183
    1WF      WF63065  17.215  20.924   1.097  0.2415 -0.0809  0.3425
    1WF      WF63066  15.875  10.994   8.334  0.1695  0.0790 -0.1253
    1WF      WF63067   9.087   3.466   9.312  0.0657  0.0907 -0.1192
    1WF      WF63068   5.644   0.277   1.831  0.0883 -0.1544 -0.0326
    1WF      WF63069   0.773  23.882   0.195 -0.1684  0.1703  0.2519
    1WF      WF63070  16.611   2.947   0.284 -0.0706 -0.1085 -0.0496
    1WF      WF63071  27.337  28.843   1.246  0.3914 -0.4069  0.0995
    1WF      WF63072  13.813   2.597   2.439 -0.3413 -0.1608 -0.6040
    1WF      WF63073  10.755  26.113   8.782  0.1844  0.3445  0.2522
    1WF      WF63074  12.835  21.246   8.680 -0.2064  0.1818 -0.2373
    1WF      WF63075   2.123  24.029   8.983  0.0919 -0.0509  0.0187
    1WF      WF63076  15.546   8.258   0.301 -0.0123 -0.2576  0.0228
    1WF      WF63077  16.784  10.822   9.235 -0.1048 -0.1852  0.0415
    1WF      WF63078  17.326  22.068   7.937  0.0360  0.1612  0.3172
    1WF      WF63079   2.323  27.292   6.492  0.1376  0.0396 -0.2417
    1WF      WF63080   3.697   3.626   0.059 -0.2032  0.1911  0.2971
    1WF      WF63081   0.015   8.045   1.570  0.1049  0.2233 -0.2562
    1WF      WF63082  23.203   2.509   1.061  0.0013  0.1423 -0.3277
    1WF      WF63083   1.038  20.025   6.967  0.1825  0.1858 -0.0543
    1WF      WF63084  27.677   0.329   8.787  0.3965 -0.2988 -0.0910
    1WF      WF63085  15.378  28.857   1.795 -0.0993  0.2070  0.4549
    1WF      WF63086  20.853  20.167   8.657  0.0803 -0.0043  0.1613
    1WF      WF63087  20.074  21.851   1.139  0.0086 -0.0141  0.1400
    1WF      WF63088   0.790   0.746   7.576 -0.0483  0.2712 -0.0471
    1WF      WF63089  19.097  25.966   9.174  0.2198  0.1175 -0.1366
    1WF      WF63090  12.554   7.474   1.488  0.0603  0.1649  0.0408
    1WF      WF63091  28.852   4.316   8.446 -0.3536 -0.1309  0.2506
    1WF      WF63092  15.662   8.071   1.436 -0.0524  0.3698 -0.2121
    1WF      WF63093  18.581  20.869   9.064 -0.0236  0.1703 -0.0485
    1WF      WF63094  28.800  25.051   8.912  0.1754  0.0575  0.1693
    1WF      WF63095  28.748  10.658   8.987  0.0866 -0.1066  0.1272
    1WF      WF63096  28.210   3.152   0.549  0.0760  0.2677 -0.1213
    1WF      WF63097  14.062  20.636   0.091  0.0924 -0.1936  0.1372
    1WF      WF63098  25.914  18.383   8.736 -0.2719  0.0605 -0.4863
    1WF      WF63099   0.002   9.128   7.176  0.0621 -0.3741 -0.0055
    1WF      WF63100  14.320   8.965   0.773 -0.1645 -0.0468  0.1824
    1WF      WF63101   1.173  11.796   7.597  0.0360  0.3078  0.0466
    1WF      WF63102  16.320  26.207   1.546 -0.0422 -0.2203 -0.0088
    1WF      WF63103   3.670  26.214   8.759 -0.1180 -0.1267  0.2988
    1WF      WF63104  15.768   9.857   0.494  0.0967  0.1409  0.2010
    1WF      WF63105   8.730  23.528   7.646 -0.1112  0.1296  0.1087
    1WF      WF63106  15.070   3.064   3.561 -0.1693  0.5169  0.3810
    1WF      WF63107   4.773  22.997   6.630 -0.0556 -0.2359 -0.2164
    1WF      WF63108   1.655  27.832   8.265 -0.1024  0.0184  0.1701
    1WF      WF63109  11.883  19.399   8.864 -0.2213 -0.0732 -0.1693
    1WF      WF63110  19.599  27.433   8.603 -0.2242  0.0048  0.0550
    1WF      WF63111   4.637   8.736   8.221 -0.1581  0.2048 -0.2123
    1WF      WF63112  19.613  19.669   7.127 -0.1829  0.0938  0.0489
    1WF      WF63113  26.566  19.632   1.484 -0.0891 -0.1486 -0.4008
    1WF      WF63114   2.399  13.745   0.894 -0.3219 -0.1013 -0.0924
    1WF      WF63115  14.838  24.584   1.585 -0.0476  0.0132 -0.0635
    1WF      WF63116  22.242  12.122   6.710  0.1993  0.1786  0.0303
    1WF      WF63117  15.737  19.155   9.662  0.1785 -0.5152 -0.4606
    1WF      WF63118  15.754  21.115   8.465  0.0704 -0.2611  0.0908
    1WF      WF63119  14.635  24.859   0.610 -0.2044 -0.3037 -0.1277
    1WF      WF63120   8.054   9.988   8.248  0.2688  0.0456  0.0431
    1WF      WF63121  10.732   7.135   8.567 -0.0818 -0.0461 -0.2450
    1WF      WF63122  18.220   2.750   9.574  0.1189 -0.0965  0.1974
    1WF      WF63123  17.587   0.504   2.060  0.1657 -0.1517 -0.0190
    1WF      WF63124  14.027  14.989   8.884  0.2012  0.1626 -0.1772
    1WF      WF63125  15.805   4.533   1.425  0.4561  0.1613 -0.2079
    1WF      WF63126  28.916  25.957   9.652  0.4661 -0.2530  0.2138
    1WF      WF63127   9.664  20.563   0.307 -0.2605  0.0886 -0.2845
    1WF      WF63128  10.558  12.147   0.955  0.1738  0.1888  0.0133
    1WF      WF63129   1.085  16.555   6.308  0.3239 -0.0722 -0.1785
    1WF      WF63130  17.694  13.520   8.100  0.2322 -0.2114  0.2012
    1WF      WF63131  20.200  24.406   1.064 -0.1832 -0.3117  0.0027
    1WF      WF63132   0.213   8.283   0.685 -0.1942  0.0265  0.1321
    1WF      WF63133   4.257  21.709   0.248  0.1317 -0.0421  0.1782
    1WF      WF63134  14.209  28.014   1.014  0.0891  0.2002 -0.3077
    1WF      WF63135  10.920  28.503   3.555  0.0854  0.1215 -0.1124
    1WF      WF63136  21.987   3.737   2.985 -0.1077  0.0290  0.1141
    1WF      WF63137  28.920  25.665   0.504  0.1719  0.0395 -0.0564
    1WF      WF63138  25.194  29.203   0.013 -0.2424 -0.3305  0.0970
    1WF      WF63139  28.991   6.941   0.742 -0.1028  0.0194  0.0022
    1WF      WF63140  29.337   3.324   1.738  0.0314  0.0191  0.1469
    1WF      WF63141  26.126  24.893   2.548  0.0566  0.1043  0.2041
    1WF      WF63142  24.820  27.160   0.870  0.0479  0.0377  0.0050
    1WF      WF63143  19.276  18.054   0.507 -0.0415  0.1627 -0.2468
    1WF      WF63144  17.151  22.901   1.146 -0.2472 -0.2363  0.0340
    1WF      WF63145   3.991  17.022   8.222  0.1269  0.0480 -0.1140
    1WF      WF63146  25.178  25.715   1.985  0.1149  0.1026 -0.0031
    1WF      WF63147  16.567  20.079   7.128  0.0999  0.0743  0.0703
    1WF      WF63148  11.266  10.066   0.115  0.0951 -0.1474  0.1928
    1WF      WF63149  28.739   0.987   9.076  0.1571 -0.0095  0.1873
    1WF      WF63150  12.365   7.488   8.826  0.3202 -0.1015 -0.4630
    1WF      WF63151  19.392  25.254   3.508 -0.1646 -0.2520 -0.0329
    1WF      WF63152   4.687   2.647   2.876 -0.1509 -0.1047  0.2458
    1WF      WF63153   3.922  14.676   8.935  0.1844 -0.4232 -0.0213
    1WF      WF63154   0.754  13.876   7.148 -0.0865 -0.3412 -0.0364
    1WF      WF63155  13.107  15.532   1.345 -0.1364 -0.0222  0.0858
    1WF      WF63156   4.382   6.961   1.438  0.3781 -0.0750 -0.1765
    1WF      WF63157  10.194  18.673   9.099  0.0241 -0.0897  0.2753
    1WF      WF63158   2.764  11.091   7.547  0.3574  0.0335 -0.1381
    1WF      WF63159  23.079  21.074   1.738 -0.0016  0.2047  0.1992
    1WF      WF63160  26.314  27.150   7.311 -0.0626  0.0978  0.1807
    1WF      WF63161  21.412   9.352   1.541 -0.0893  0.0526 -0.0132
    1WF      WF63162   3.951   7.126   1.116 -0.0706 -0.0725  0.5401
    1WF      WF63163  20.445  21.945   9.187 -0.1688  0.1366 -0.3715
    1WF      WF63164  17.623  20.624   1.072 -0.1026 -0.2605 -0.0664
    1WF      WF63165  21.114   8.563   1.481  0.3381  0.3103 -0.0996
    1WF      WF63166   6.060   9.347   3.302  0.1176  0.2127 -0.3768
    1WF      WF63167  23.214  21.035   2.227 -0.0591  0.0467  0.1763
    1WF      WF63168  14.503  13.250   7.964  0.0288 -0.0474  0.1000
    1WF      WF63169  29.279  17.897   0.021  0.4583  0.2417  0.0830
    1WF      WF63170  15.850   5.563   0.569  0.0149  0.0117  0.0888
    1WF      WF63171   6.764  23.656   0.259 -0.0928 -0.1476  0.0114
    1WF      WF63172  15.883   5.747   8.685 -0.1435  0.0452  0.2129
    1WF      WF63173  27.315   9.237   0.576  0.2353  0.0458  0.1209
    1WF      WF63174   5.429   6.547   8.739  0.1879  0.2233  0.1944
    1WF      WF63175   7.360  25.689   0.437 -0.1374  0.2198 -0.0013
    1WF      WF63176  16.764  10.520   0.061  0.1985 -0.3113  0.0432
    1WF      WF63177  16.004   4.857   1.765 -0.1487 -0.1389 -0.2485
    1WF      WF63178   6.151   6.725   9.669 -0.0508 -0.2533  0.1242
    1WF      WF63179  19.797  22.260   1.305 -0.0993  0.0956 -0.0258
    1WF      WF63180  24.010  20.036   6.571 -0.3370 -0.1370  0.0960
    1WF      WF63181  19.412  20.358   0.504  0.0571 -0.1563  0.1816
    1WF      WF63182   8.502   3.928   8.634  0.0656 -0.2012 -0.2941
    1WF      WF63183   3.774   8.788   0.039 -0.1532  0.1961  0.2903
    1WF      WF63184   4.449   8.292   5.940 -0.1002 -0.1592  0.1900
    1WF      WF63185  14.260  23.487   0.878  0.0902  0.2367  0.0106
    1WF      WF63186   2.638  18.286   7.406  0.1423 -0.1386  0.1075
    1WF      WF63187  26.101  27.699   2.742  0.0943  0.1457  0.0714
    1WF      WF63188   8.158  18.744   0.756 -0.2864 -0.0324 -0.1298
    1WF      WF63189  24.827  27.353   7.557  0.1321 -0.3153  0.3079
    1WF      WF63190   0.847   9.829   1.280  0.0659  0.3961  0.2262
    1WF      WF63191   6.517  16.390   8.578 -0.1649 -0.3031  0.0213
    1WF      WF63192  25.432  22.791   1.670  0.0833 -0.0265  0.3011
    1WF      WF63193  14.495  27.881   1.906  0.1517  0.0981  0.0770
    1WF      WF63194  29.150  21.915   8.029 -0.1893  0.1832  0.1518
    1WF      WF63195  13.227   5.957   0.006  0.2606  0.1650 -0.1045
    1WF      WF63196  26.229  11.226   8.901  0.2154 -0.1500  0.0777
    1WF      WF63197  24.004  28.592   9.149 -0.0087  0.0433 -0.4229
    1WF      WF63198   7.663  25.972   0.747 -0.0968 -0.3181 -0.0204
    1WF      WF63199  27.814  26.671   9.424  0.0807 -0.2088 -0.2247
    1WF      WF63200  11.705  16.314   8.604 -0.0532 -0.0863 -0.1630
    1WF      WF63201  20.704  24.300   8.638  0.1641  0.2506  0.0779
    1WF      WF63202  19.383  11.532   0.835 -0.0717  0.0339 -0.0002
    1WF      WF63203  13.011   6.472   0.160 -0.1149 -0.0980 -0.2362
    1WF      WF63204  12.412  21.405   7.928 -0.2621 -0.0317 -0.0578
    1WF      WF63205  14.086  17.791   8.902 -0.1019  0.1003  0.0890
    1WF      WF63206   5.748  19.862   8.739 -0.1465  0.0148  0.1547
    1WF      WF63207  13.706   5.667   9.559  0.2881  0.0678  0.1201
    1WF      WF63208   6.866  18.778   9.492 -0.1387  0.0606 -0.2421
    1WF      WF63209  28.633   8.331   1.025 -0.1244 -0.1192 -0.3481
    1WF      WF63210   1.074  11.934   9.203 -0.1160 -0.1978  0.2067
    1WF      WF63211  25.424   5.288   1.471 -0.1068  0.0203  0.1997
    1WF      WF63212  13.756   8.379   8.809 -0.0858  0.1137 -0.0705
    1WF      WF63213  27.129  12.396   9.083  0.1195  0.0004  0.0704
    1WF      WF63214  22.928  13.941   0.163 -0.1743  0.0368 -0.0501
    1WF      WF63215   6.534  26.831   2.917  0.0384 -0.2611  0.1753
    1WF      WF63216   3.153  14.852   7.036 -0.1231  0.1480  0.1377
    1WF      WF63217   6.664  17.365   9.395 -0.0677  0.3119 -0.1901
    1WF      WF63218  24.365   3.091   7.416  0.1735 -0.2182 -0.0909
    1WF      WF63219  17.220  19.218   8.686  0.1513 -0.0022  0.0621
    1WF      WF63220  12.952  24.986   3.578 -0.0554  0.1229 -0.0310
    1WF      WF63221  27.593  18.196   0.833 -0.1497  0.1843  0.0443
    1WF      WF63222   4.852   2.368   1.720  0.2408 -0.2027  0.0942
    1WF      WF63223   1.159   9.584   8.843  0.1384  0.0991 -0.1957
    1WF      WF63224  20.307   0.393   3.344 -0.3106  0.0938 -0.3530
    1WF      WF63225  15.662   5.998   2.052  0.0383  0.0520 -0.0994
    1WF      WF63226  22.812  26.288   0.969 -0.0732  0.0178 -0.2533
    1WF      WF63227   6.569   4.568   8.066  0.0924 -0.2515  0.1405
    1WF      WF63228  28.172   3.408   0.136 -0.1062  0.1830  0.2456
    1WF      WF63229   6.876  16.090   8.476 -0.0675 -0.2029 -0.0004
    1WF      WF63230  18.482   0.756   1.730 -0.0454 -0.1660  0.2817
    1WF      WF63231  25.619  19.083   7.795 -0.3553 -0.1153 -0.0293
    1WF      WF63232  17.328  17.480   9.672 -0.3251  0.0663  0.0577
    1WF      WF63233   9.315  18.759   8.378 -0.1429  0.2585  0.4106
    1WF      WF63234  24.426  19.564   0.787 -0.1218  0.2164 -0.2900
    1WF      WF63235   1.385   6.000   1.860  0.1702  0.0228  0.1728
    1WF      WF63236   5.744  20.237   9.482  0.2214  0.1353 -0.0794
    1WF      WF63237   3.887  28.977   7.394 -0.1507 -0.2359 -0.1161
    1WF      WF63238   9.776   0.906   1.765 -0.6244  0.0033  0.0629
    1WF      WF63239   9.324  17.470   7.130  0.0116 -0.2268 -0.2165
    1WF      WF63240   4.191  23.164   6.581 -0.0545  0.0735  0.2017
    1WF      WF63241  11.190  11.059   1.441  0.3069  0.0385  0.0183
    1WF      WF63242  27.241  12.045   6.666  0.1078  0.0333 -0.1201
    1WF      WF63243   6.894  12.833   9.001 -0.0873 -0.1046 -0.1062
    1WF      WF63244  12.127   4.569   8.704 -0.2859 -0.0084 -0.0822
    1WF      WF63245  18.214  28.871   1.661 -0.0247  0.0731 -0.0800
    1WF      WF63246   5.737   4.847   2.535 -0.2090  0.0675  0.0610
    1WF      WF63247  13.076  26.191   7.595 -0.1430  0.3681 -0.1941
    1WF      WF63248  15.573  26.119   8.593 -0.5150  0.1866  0.0510
    1WF      WF63249   8.461  10.157   8.435  0.2695  0.0175 -0.1122
    1WF      WF63250  14.187   2.752   9.598  0.3346  0.0300  0.2885
    1WF      WF63251   2.556  16.826   9.258  0.3686 -0.1668  0.1505
    1WF      WF63252  14.653   2.354   1.711 -0.2724  0.0974  0.1301
    1WF      WF63253  14.921   9.915   1.850  0.0703  0.3065 -0.2049
    1WF      WF63254   3.264   6.222   9.248 -0.1990  0.0896  0.3245
    1WF      WF63255  17.423   8.625   1.373 -0.1925  0.2642 -0.0037
    1WF      WF63256  21.707   7.622   0.207  0.3510  0.2828  0.0225
    1WF      WF63257   2.555  16.172   9.282 -0.3630  0.2764  0.0219
    1WF      WF63258  15.245  11.527   8.782  0.0912 -0.2235  0.0854
    1WF      WF63259   4.125  25.644   6.725 -0.3204 -0.1756 -0.0500
    1WF      WF63260  15.566   1.902   9.510 -0.0249  0.0125  0.0455
    1WF      WF63261  14.040  26.313   0.141  0.0235 -0.0589 -0.3832
    1WF      WF63262  20.087   7.902   8.248 -0.0308  0.1891  0.3651
    1WF      WF63263   9.536   4.112   8.773 -0.2004 -0.0014  0.0974
    1WF      WF63264   3.511   9.396   2.111  0.1478  0.1040  0.1428
    1WF      WF63265  25.188  24.648   1.239  0.0402 -0.2779 -0.2772
    1WF      WF63266   2.738   0.024   8.077 -0.1388  0.0062 -0.0101
    1WF      WF63267  26.993  18.874   2.842 -0.1836  0.4120 -0.2078
    1WF      WF63268  21.936   9.005   8.842  0.0000 -0.1808  0.0562
    1WF      WF63269  11.121  24.424   0.947 -0.0704 -0.4721  0.6568
    1WF      WF63270  10.765  25.040   1.294 -0.1978 -0.2415 -0.1521
    1WF      WF63271  19.334  22.731   1.731  0.1544 -0.4004  0.1164
    1WF      WF63272   7.268  12.916   9.334 -0.2361  0.0264 -0.1398
    1WF      WF63273   8.658  22.972   2.601 -0.2030  0.0437  0.1481
    1WF      WF63274  25.774  16.282   1.110 -0.4346 -0.2968 -0.5690
    1WF      WF63275  14.358  23.038   9.134  0.0616 -0.1785 -0.2346
    1WF      WF63276   9.449  13.069   6.775  0.0105  0.0391  0.1818
    1WF      WF63277   2.694   0.216   7.570  0.1529 -0.0817 -0.0822
    1WF      WF63278  28.117  28.242   7.427  0.1262  0.1571 -0.0059
    1WF      WF63279  11.124  11.462   1.112 -0.1330 -0.2185 -0.2297
    1WF      WF63280  15.488  17.613   1.768  0.1392 -0.1057  0.1342
    1WF      WF63281  24.169   1.312   8.450 -0.0670 -0.0833 -0.2730
    1WF      WF63282  15.741  10.327   0.694  0.0593  0.0319 -0.1020
    1WF      WF63283  26.336  17.923   7.200  0.1696 -0.1094  0.2737
    1WF      WF63284  23.447   7.832   7.659  0.0887 -0.0883  0.1874
    1WF      WF63285  23.558  21.057   1.837 -0.0778  0.0905  0.0098
    1WF      WF63286  23.474  15.941   9.490 -0.2329  0.1109 -0.1871
    1WF      WF63287  11.865  25.359   0.168 -0.1920  0.1265  0.1817
    1WF      WF63288   7.033   9.294   8.429 -0.1175  0.2147  0.0368
    1WF      WF63289   0.260  19.433   7.665  0.2007 -0.0281  0.0160
    1WF      WF63290  29.266  19.142   8.067  0.0952  0.0497 -0.2603
    1WF      WF63291  12.063  28.466   8.530  0.1256  0.0568  0.2136
    1WF      WF63292   6.845   3.697   0.504  0.0839  0.3228 -0.2232
    1WF      WF63293  27.362  14.303   8.749 -0.0348  0.0250  0.1757
    1WF      WF63294  26.092  24.518   9.042 -0.3895  0.0471 -0.1115
    1WF      WF63295   6.359   1.039   8.682 -0.0366  0.3229  0.1156
    1WF      WF63296   9.914  11.093   1.965  0.4580  0.1357 -0.0034
    1WF      WF63297   4.557  27.740   1.333 -0.1753 -0.1497 -0.1992
    1WF      WF63298  14.535  18.650   0.158 -0.1329  0.4240 -0.0402
    1WF      WF63299  27.972  21.331   8.255 -0.4487 -0.0127 -0.0016
    1WF      WF63300   9.364  18.803   1.191 -0.0218  0.2047  0.1428
    1WF      WF63301  25.777  26.516   9.339  0.0550 -0.1511 -0.1888
    1WF      WF63302  21.014   1.104   0.321 -0.1801  0.0171 -0.3259
    1WF      WF63303   1.722  12.113   0.039 -0.0283  0.2632  0.1229
    1WF      WF63304  26.993  16.723   8.918 -0.2423 -0.2319 -0.0085
    1WF      WF63305  23.798  20.604   0.367  0.2063  0.3195  0.2350
    1WF      WF63306   6.599  22.443   7.350 -0.2201  0.1547  0.1626
    1WF      WF63307  14.067   0.008   2.733 -0.1498  0.3596  0.0038
    1WF      WF63308  23.374  23.618   7.299  0.1692  0.1442 -0.2245
    1WF      WF63309  21.711   7.374   9.420 -0.0370 -0.4212 -0.0951
    1WF      WF63310   9.726   0.480   2.162 -0.1731  0.0176  0.0417
    1WF      WF63311  16.932  16.712   7.968 -0.0932 -0.0541  0.2430
    1WF      WF63312  17.416   4.881   2.522 -0.2038 -0.1955 -0.1212
    1WF      WF63313   4.614  21.627   7.333 -0.0061 -0.1240  0.2584
    1WF      WF63314  12.417  20.303   8.156 -0.1333 -0.0489 -0.0974
    1WF      WF63315   2.101   2.113   2.534 -0.2112  0.0890  0.2010
    1WF      WF63316  15.737  11.755   0.994 -0.3986 -0.1596  0.1142
    1WF      WF63317  21.419  13.334   8.220 -0.0653 -0.1892 -0.0937
    1WF      WF63318  29.351  17.507   8.751 -0.0325 -0.2549  0.0425
    1WF      WF63319  15.336  29.192   2.252  0.1970 -0.0660 -0.2035
    1WF      WF63320  21.558   9.290   8.387  0.0617 -0.2773 -0.1516
    1WF      WF63321  23.983   9.601   7.813 -0.5190 -0.4280  0.0713
    1WF      WF63322   9.416   0.259   0.988 -0.0914  0.1041 -0.1602
    1WF      WF63323  12.203  10.295   9.297  0.0953  0.0900  0.0773
    1WF      WF63324   3.647   6.226   8.844 -0.0249 -0.0408 -0.0221
    1WF      WF63325   4.616   3.494   7.811  0.1693 -0.0166  0.1811
    1WF      WF63326  22.621  10.755   1.249 -0.3035  0.0438  0.1430
    1WF      WF63327  19.646  20.519   7.378  0.0909 -0.1071 -0.0623
    1WF      WF63328  29.132  11.239   2.172  0.1103  0.0674  0.2397
    1WF      WF63329  23.835  16.751   0.703  0.1701 -0.0590  0.1295
    1WF      WF63330   0.959  16.533   6.899 -0.2889 -0.0686  0.0405
    1WF      WF63331  25.703  27.036   9.234 -0.2036  0.2153 -0.2424
    1WF      WF63332  24.814   1.202   9.246 -0.1979  0.1406  0.2435
    1WF      WF63333   0.148   5.673   0.896 -0.0135  0.0180 -0.3195
    1WF      WF63334  24.475  14.032   9.588  0.3154 -0.1893  0.0405
    1WF      WF63335  24.731   2.655   7.186  0.0996 -0.0786 -0.5857
    1WF      WF63336  19.186   8.117   1.808 -0.0664  0.2069 -0.2457
    1WF      WF63337   0.161   2.295   8.762 -0.1388  0.2547  0.1811
    1WF      WF63338  12.950  24.955   3.076  0.0084  0.2518 -0.0484
    1WF      WF63339  18.772  27.320   9.401 -0.0608  0.1632 -0.2795
    1WF      WF63340  19.636  28.256   0.114  0.1588 -0.3740  0.2683
    1WF      WF63341   2.993   2.404   7.889  0.0168 -0.3909  0.2667
    1WF      WF63342   3.337   3.773   9.448 -0.1434 -0.2096  0.3378
    1WF      WF63343   4.676  10.741   0.963  0.0403 -0.0318 -0.0287
    1WF      WF63344   5.190   6.288   8.365 -0.1443  0.0097  0.0112
    1WF      WF63345  11.490  21.419   0.381  0.3466 -0.0276  0.0534
    1WF      WF63346   2.818  21.462   9.297 -0.0858 -0.2254 -0.1023
    1WF      WF63347   3.335  14.562   7.570 -0.0922  0.0856  0.2642
    1WF      WF63348  16.249   7.237   8.665  0.0951  0.1702 -0.0257
    1WF      WF63349  24.510  18.796   8.234  0.0000  0.2269 -0.1073
    1WF      WF63350  25.639  19.564   6.620  0.0508  0.0350 -0.0663
    1WF      WF63351   3.279  14.683   8.981 -0.1499  0.1224  0.2940
    1WF      WF63352  19.387  26.402   0.272 -0.1211 -0.2543 -0.2024
    1WF      WF63353   6.190  10.668   9.320 -0.1655  0.0745 -0.1519
    1WF      WF63354   5.179   8.462   8.020 -0.0953 -0.0875 -0.0385
    1WF      WF63355   2.706  24.174   1.591 -0.0483 -0.0245  0.2514
    1WF      WF63356  27.627  10.767   0.698 -0.1224  0.0856  0.0054
    1WF      WF63357  26.620  29.003   8.060 -0.0902  0.0777  0.3349
    1WF      WF63358   2.964  11.054   8.006 -0.0263  0.1764 -0.3224
    1WF      WF63359  23.475  18.539   7.022 -0.1261  0.2060 -0.4136
    1WF      WF63360   5.244  12.751   8.796 -0.0783  0.0848  0.3150
    1WF      WF63361  18.423  19.614   3.320  0.0036  0.0283 -0.1829
    1WF      WF63362  21.245  20.165   0.109  0.5232 -0.0230 -0.1979
    1WF      WF63363   3.423   2.730   7.748  0.0046 -0.0597 -0.1406
    1WF      WF63364  14.222  19.821   9.257  0.0780 -0.0215 -0.0129
    1WF      WF63365   7.670  13.177   0.375  0.3149 -0.0561 -0.2681
    1WF      WF63366  12.906   9.444   9.470  0.0756  0.0569 -0.0315
    1WF      WF63367   4.786  20.910   0.369 -0.1585  0.0523 -0.2175
    1WF      WF63368  15.584   5.831   8.177 -0.0370 -0.1935  0.1046
    1WF      WF63369   7.759  15.354   8.194 -0.1852  0.0585  0.0332
    1WF      WF63370   0.542   5.987   9.395  0.0682  0.1427 -0.2038
    1WF      WF63371  14.003  29.263   1.219 -0.2308 -0.2003  0.0462
    1WF      WF63372   5.677   7.437   8.218 -0.2133 -0.2444  0.0227
    1WF      WF63373   6.958  28.708   8.018  0.1748 -0.1622 -0.2529
    1WF      WF63374  18.460   1.033   0.207 -0.4145  0.0565 -0.1152
    1WF      WF63375   2.209   2.956   1.621 -0.0732 -0.6147  0.1250
    1WF      WF63376  18.650   8.898   8.238 -0.1945 -0.1387  0.1348
    1WF      WF63377  11.991  29.076   8.532  0.1919 -0.1072  0.3416
    1WF      WF63378   6.859  29.309   8.820  0.2881 -0.3904  0.1676
    1WF      WF63379   7.704  22.175   9.035  0.1626 -0.0579 -0.0574
    1WF      WF63380  29.262  12.112   0.030  0.0722 -0.0015 -0.0638
    1WF      WF63381   2.529  26.353   6.154 -0.5043  0.1161 -0.2342
    1WF      WF63382  20.621  26.478   1.458  0.0871  0.1727 -0.1685
    1WF      WF63383  27.519  17.043   7.337  0.1573  0.0152  0.2750
    1WF      WF63384  10.101   2.744   2.638 -0.1311  0.1087 -0.0492
    1WF      WF63385  22.641  18.209   0.289  0.0341  0.0092 -0.0196
    1WF      WF63386  23.517  13.819   9.602  0.0954  0.0252  0.2613
    1WF      WF63387   3.645  21.512   9.052 -0.5278  0.2344 -0.0563
    1WF      WF63388   1.380   4.521   6.372  0.1613 -0.2239  0.2006
    1WF      WF63389   5.725  14.135   7.751  0.1508 -0.3118 -0.0739
    1WF      WF63390  21.139   3.066   1.447 -0.2176  0.2794  0.0922
    1WF      WF63391  17.666  15.802   9.174  0.0790  0.0193  0.2233
    1WF      WF63392  14.442   8.572   7.152  0.0966 -0.0977  0.1239
    1WF      WF63393  23.646   3.851   9.191 -0.0622  0.0021 -0.0787
    1WF      WF63394  25.609  14.536   9.586 -0.0859  0.0586  0.0922
    1WF      WF63395  20.638   3.918   8.040  0.2672 -0.0007 -0.1920
    1WF      WF63396  14.651  16.206   0.644  0.2879 -0.1636 -0.1197
    1WF      WF63397  10.640  11.665   1.143  0.0328  0.0778  0.2053
    1WF      WF63398  28.125  16.663   7.481  0.2752 -0.0151  0.1246
    1WF      WF63399   4.318  15.439   8.578  0.0623 -0.3053 -0.3573
    1WF      WF63400   2.187   7.155   0.081  0.2637 -0.4199  0.2212
    1WF      WF63401  10.345  19.837   1.870 -0.0417 -0.1083 -0.0804
    1WF      WF63402   1.384  20.402   7.069 -0.0537 -0.1631 -0.0276
    1WF      WF63403  13.896  24.257   6.513  0.0674  0.0535 -0.3317
    1WF      WF63404  19.665  18.065   1.054 -0.0525 -0.0279  0.0327
    1WF      WF63405   5.100   8.732   8.897  0.2110  0.0364  0.0801
    1WF      WF63406  29.268  13.110   8.187 -0.2926 -0.1524  0.0456
    1WF      WF63407  20.692  22.361   9.448  0.1146 -0.0248  0.4258
    1WF      WF63408  17.458  14.658   8.134  0.1891 -0.0403  0.2178
    1WF      WF63409  16.032  26.463   0.078 -0.4201  0.1656 -0.0537
    1WF      WF63410   2.138   9.360   1.103 -0.1652 -0.2076 -0.2687
    1WF      WF63411  18.916  28.557   2.194  0.3683 -0.0119  0.3331
    1WF      WF63412  23.849   1.584   7.759  0.1119  0.2103  0.2232
    1WF      WF63413   8.535   8.907   1.697 -0.1492  0.1765 -0.1368
    1WF      WF63414  19.755   8.011   0.738  0.1812  0.1274  0.2576
    1WF      WF63415   7.045  18.285   9.686 -0.0037  0.2593 -0.0426
    1WF      WF63416   5.332   0.267   8.977  0.1353 -0.0402 -0.2917
    1WF      WF63417   9.216   0.522   2.248 -0.3079  0.2156 -0.1765
    1WF      WF63418   5.349  29.118   3.672 -0.3567  0.0055 -0.0914
    1WF      WF63419  10.434  13.016   8.229 -0.0738  0.1506 -0.1035
    1WF      WF63420  18.295  16.665   0.409  0.1740  0.0808 -0.1428
    1WF      WF63421   3.245   9.728   1.829 -0.3442  0.1391 -0.0402
    1WF      WF63422  28.894  22.074   8.404 -0.0051  0.1147 -0.1319
    1WF      WF63423  28.208   5.411   8.741  0.0323  0.1146 -0.0459
    1WF      WF63424  13.154  18.280   8.674  0.1206 -0.1266  0.2984
    1WF      WF63425  14.495  27.809   0.163  0.3410  0.1598  0.1317
    1WF      WF63426  20.244  24.190   1.542  0.1514  0.0739 -0.2529
    1WF      WF63427  12.812  21.598   8.157 -0.0491  0.0133  0.4016
    1WF      WF63428  16.250   0.365   0.866  0.2470 -0.1644  0.0766
    1WF      WF63429  12.476  26.961   4.203  0.0550 -0.2464 -0.0063
    1WF      WF63430  20.706  28.863   9.318  0.3764 -0.0308 -0.0037
    1WF      WF63431  19.042   4.464   9.335  0.0635 -0.2358 -0.1748
    1WF      WF63432  12.125  15.838   0.154 -0.1436 -0.1678 -0.2192
    1WF      WF63433  22.469   3.903   2.060 -0.2117  0.0983 -0.1068
    1WF      WF63434   7.343  28.829   9.639 -0.0431 -0.1870 -0.0679
    1WF      WF63435   8.488  17.711   9.176  0.2928  0.4712  0.0985
    1WF      WF63436   9.928   0.013   7.517  0.2496 -0.1047  0.0034
    1WF      WF63437  27.383  26.523   0.635  0.3512  0.0615  0.4747
    1WF      WF63438   4.422  11.418   8.016 -0.0219 -0.2202  0.2199
    1WF      WF63439   9.992  19.846   2.237 -0.0355 -0.3302 -0.1734
    1WF      WF63440   9.297  26.984   1.660  0.0141  0.0523  0.0830
    1WF      WF63441  21.755  16.521   0.829 -0.2548  0.1106  0.0055
    1WF      WF63442  16.650   0.155   1.165 -0.0714  0.0141 -0.0700
    1WF      WF63443  10.737  20.798   2.039  0.0673 -0.1892  0.0876
    1WF      WF63444  12.737   2.461   2.838  0.2347 -0.0242  0.0785
    1WF      WF63445  28.548  22.184   1.130  0.0850  0.1535  0.1444
    1WF      WF63446  15.411   0.425   9.123  0.4040 -0.0161 -0.0869
    1WF      WF63447  21.878  24.684   9.406  0.0230  0.1113 -0.2363
    1WF      WF63448  20.516  16.892   9.275  0.4937  0.3149  0.2590
    1WF      WF63449  22.584   1.094   7.808 -0.1062  0.0085  0.0770
    1WF      WF63450   0.383  17.255   0.375 -0.2988 -0.2025 -0.0791
    1WF      WF63451  27.550  13.322   0.165 -0.1777  0.0383 -0.1524
    1WF      WF63452   6.871  11.831   0.750 -0.1994  0.0934 -0.2678
    1WF      WF63453  22.808  27.097   9.681 -0.0088  0.2412  0.1202
    1WF      WF63454  27.051   3.785   9.464 -0.0374  0.0031  0.1529
    1WF      WF63455  24.421  26.509   3.293  0.0325 -0.1393  0.1116
    1WF      WF63456  15.208   3.911   9.610  0.0964  0.0199 -0.0651
    1WF      WF63457  15.809   3.927   6.977  0.1037 -0.2779  0.0596
    1WF      WF63458  11.327  29.225   0.675  0.0805 -0.1282 -0.1372
    1WF      WF63459   8.449   6.630   7.642 -0.1208 -0.2005 -0.3291
    1WF      WF63460  21.360  10.067   9.492  0.0892 -0.0781  0.2727
    1WF      WF63461   8.664   2.683   0.255 -0.2392 -0.3211 -0.1318
    1WF      WF63462  12.479  17.563   6.642  0.0956  0.0510 -0.1359
    1WF      WF63463   7.709  16.088   0.722 -0.2989  0.2196  0.1202
    1WF      WF63464  15.596   6.325   7.833 -0.2854 -0.3746  0.0414
    1WF      WF63465  22.602  27.581   9.687  0.0639  0.0641  0.0777
    1WF      WF63466   5.709  18.188   6.727 -0.1529  0.1436  0.1233
    1WF      WF63467   5.489  12.435   8.462 -0.0491 -0.0929 -0.1632
    1WF      WF63468  29.028   1.769   2.494 -0.1009  0.0947 -0.1004
    1WF      WF63469  25.905  14.440   0.329 -0.0693 -0.0687  0.1121
    1WF      WF63470  17.783  19.528   2.223  0.0815 -0.1712  0.1142
    1WF      WF63471  20.940  24.697   8.839  0.2814 -0.0350 -0.1281
    1WF      WF63472  11.153  22.216   6.382 -0.0902 -0.0349 -0.1805
    1WF      WF63473   3.035  20.820   2.791 -0.0281 -0.2576 -0.0772
    1WF      WF63474   0.817  13.619   1.085 -0.2026  0.1109  0.1490
    1WF      WF63475  10.152   9.405   1.082  0.0363  0.1237  0.2666
    1WF      WF63476  20.822  13.429   6.638  0.1016 -0.0607  0.0676
    1WF      WF63477  19.581   7.851   1.830  0.0787  0.1748 -0.4384
    1WF      WF63478  28.986  27.832   1.518 -0.1039  0.1070  0.0912
    1WF      WF63479   2.699   3.242   1.023  0.2294  0.1747  0.0801
    1WF      WF63480   0.472   6.643   8.074  0.1316 -0.0073 -0.0939
    1WF      WF63481  18.437   3.794   1.281  0.3518 -0.0712 -0.1622
    1WF      WF63482   8.890  27.426   3.659 -0.1083  0.3401  0.0289
    1WF      WF63483  16.892  20.330   8.675 -0.3160 -0.3470  0.0090
    1WF      WF63484   7.571  24.230   0.129  0.0310 -0.2600 -0.2137
    1WF      WF63485  27.726  10.326   1.205  0.1536  0.2342 -0.3017
    1WF      WF63486  19.128  28.847   0.130 -0.2472 -0.2310 -0.1413
    1WF      WF63487   5.400   5.074   2.188  0.2569  0.3041 -0.1790
    1WF      WF63488  14.067   7.752   7.480 -0.0197  0.1041  0.3667
    1WF      WF63489   6.048   1.283   1.637 -0.2648  0.1376  0.0455
    1WF      WF63490   5.703  25.203   8.083  0.2075  0.0269 -0.2096
    1WF      WF63491  11.109  13.180   6.796  0.0611  0.1355 -0.1489
    1WF      WF63492   4.937  19.644   7.386  0.1040 -0.1808  0.0767
    1WF      WF63493  18.590  12.977   0.491 -0.2749  0.3119  0.0305
    1WF      WF63494  20.769  19.310   8.959  0.1272 -0.0250  0.1948
    1WF      WF63495   0.044  14.790   9.356  0.1844 -0.2842  0.0882
    1WF      WF63496  16.534  12.401   8.807 -0.2456 -0.4088  0.4655
    1WF      WF63497  14.067  28.452   0.625  0.0020 -0.0012  0.2139
    1WF      WF63498  19.649  28.779   0.124 -0.0219  0.0849 -0.4037
    1WF      WF63499   5.962  10.949   9.677 -0.0749  0.1182  0.3185
    1WF      WF63500  24.529  29.191   1.618  0.0882  0.1347  0.2484
    1WF      WF63501  20.285  26.586   1.941  0.0107 -0.0010  0.1119
    1WF      WF63502   5.753   1.714   0.227 -0.1560  0.4333 -0.0302
    1WF      WF63503  16.744   0.228   1.741  0.0927  0.2329 -0.2951
    1WF      WF63504  21.860   7.514   0.686 -0.1298 -0.3728  0.0600
    1WF      WF63505  24.523   4.076   2.618 -0.3792 -0.2787 -0.2351
    1WF      WF63506  15.301   1.927   8.684 -0.3880  0.3251 -0.6332
    1WF      WF63507  29.225  19.385   9.300  0.0520 -0.2362 -0.0229
    1WF      WF63508  10.226   9.001   0.131  0.3394  0.1034 -0.1232
    1WF      WF63509  16.530  24.654   9.174  0.1459 -0.1246 -0.0671
    1WF      WF63510  12.649   3.708   0.932  0.0538  0.0440 -0.0696
    1WF      WF63511  15.699  14.998   0.233  0.1689 -0.1411 -0.0381
    1WF      WF63512   2.734   9.508   7.029  0.3572  0.2796  0.3398
    1WF      WF63513  26.078  18.929   1.034  0.2240 -0.0285 -0.2155
    1WF      WF63514  21.546   8.807   8.657  0.0662  0.1408  0.2832
    1WF      WF63515  11.632  17.320   9.657  0.1029  0.1505 -0.0854
    1WF      WF63516  12.456  21.480   0.044 -0.0608 -0.1347 -0.2425
    1WF      WF63517  21.857  27.205   9.381 -0.0243  0.2458 -0.2346
    1WF      WF63518  18.804  13.854   0.292 -0.2857 -0.3944 -0.0367
    1WF      WF63519   1.024  15.742   8.054 -0.0946 -0.1895  0.7147
    1WF      WF63520  15.758   0.922   0.249  0.0620  0.0187  0.2344
    1WF      WF63521  26.061  26.815   0.647 -0.0290 -0.0005  0.0658
    1WF      WF63522  11.651  28.746   8.714 -0.1644 -0.1831 -0.3012
    1WF      WF63523  18.541  14.059   8.661  0.2597 -0.0143 -0.2193
    1WF      WF63524  22.957  10.972   8.330  0.0616  0.1077 -0.0482
    1WF      WF63525  18.963   1.956   1.438  0.1481 -0.0932  0.1353
    1WF      WF63526  21.965  18.099   0.240 -0.1599 -0.0884 -0.0508
    1WF      WF63527   2.651  27.305   6.982 -0.2185 -0.2421  0.0139
    1WF      WF63528  21.264  22.563   8.937 -0.2502  0.0746 -0.1452
    1WF      WF63529   4.835  13.500   6.495  0.1490  0.2522  0.2329
    1WF      WF63530  12.199  18.148   9.294 -0.1175 -0.1274 -0.3355
    1WF      WF63531  19.134   1.320   0.808 -0.1913 -0.0058 -0.2970
    1WF      WF63532  21.063   6.667   7.674  0.2929  0.0579  0.0958
    1WF      WF63533  25.291  22.278   1.728 -0.1412 -0.2786 -0.2052
    1WF      WF63534  26.222  13.456   7.641 -0.0307 -0.2691  0.0343
    1WF      WF63535  16.594  28.001   7.294  0.2595  0.2290  0.1908
    1WF      WF63536  13.777   1.652   8.812 -0.1041 -0.2215 -0.0130
    1WF      WF63537  11.506  10.160   1.998 -0.0829 -0.1285 -0.0035
    1WF      WF63538  13.526   5.846   7.140  0.0037 -0.0377  0.1042
    1WF      WF63539  25.896  16.923   5.925 -0.0282 -0.0969 -0.1072
    1WF      WF63540   8.019   0.800   0.608  0.1460 -0.0007  0.0535
    1WF      WF63541   4.072  23.557   6.816  0.0039 -0.0510 -0.0645
    1WF      WF63542  28.941  13.595   0.393  0.1751  0.1137  0.2852
    1WF      WF63543  20.359   1.951   1.932  0.1049 -0.2633  0.0670
    1WF      WF63544  17.653   9.624   9.374 -0.1923  0.3956 -0.1866
    1WF      WF63545   5.850   6.745   8.704  0.0480 -0.2445  0.2761
    1WF      WF63546   9.188  12.211   0.161 -0.0616 -0.0003  0.2354
    1WF      WF63547  27.929  27.822   0.065 -0.2320 -0.2275  0.1219
    1WF      WF63548   0.312  19.481   8.142  0.3192 -0.0423 -0.1865
    1WF      WF63549   2.083   2.291   8.521  0.1418  0.0276  0.1327
    1WF      WF63550  20.738   9.054   0.436 -0.2483 -0.0609  0.0335
    1WF      WF63551  19.955  20.890   9.155 -0.1445 -0.0132 -0.1203
    1WF      WF63552   2.954  11.293   0.868  0.1197  0.0645 -0.2875
    1WF      WF63553   6.138   5.278   0.531  0.1115 -0.0401 -0.2675
    1WF      WF63554  27.126  19.017   1.832  0.0741  0.1032 -0.1295
    1WF      WF63555  21.712  25.874   8.981 -0.1409 -0.1179 -0.0371
    1WF      WF63556   5.123   5.703   8.090  0.1061  0.1587  0.2841
    1WF      WF63557  10.362  25.839   9.190 -0.3419 -0.1645 -0.1160
    1WF      WF63558  24.516  17.291   7.993  0.0026 -0.0149  0.1637
    1WF      WF63559   1.104   3.234   1.738  0.0439  0.1302  0.1896
    1WF      WF63560   7.254  14.226   1.063 -0.0379 -0.1712 -0.3839
    1WF      WF63561   8.832  14.013   0.090 -0.0835  0.3427  0.0774
    1WF      WF63562  12.114   4.019   8.804  0.0798 -0.0582  0.0722
    1WF      WF63563   1.008  20.532   6.802 -0.0343 -0.0637  0.0185
    1WF      WF63564  26.947   8.755   7.357 -0.0874  0.1042  0.0685
    1WF      WF63565  21.460  22.182   0.459  0.1101  0.0106 -0.2385
    1WF      WF63566   2.526  20.704   2.884 -0.0282  0.0748 -0.0292
    1WF      WF63567  22.143  10.450   1.282 -0.1264 -0.0398  0.2056
    1WF      WF63568  20.563   1.971   8.874 -0.0804 -0.0574 -0.3412
    1WF      WF63569   8.279  20.691   9.044  0.0178 -0.1921  0.0948
    1WF      WF63570   8.176  18.096   6.306  0.3889 -0.1376  0.0796
    1WF      WF63571  17.063  18.557   1.266 -0.0474 -0.2735 -0.0528
    1WF      WF63572  20.991  24.402   6.470  0.0491 -0.1813  0.0507
    1WF      WF63573   7.291   2.063   1.858 -0.2366  0.2638  0.0560
    1WF      WF63574  26.345  21.036   7.132 -0.0267 -0.1818 -0.1615
    1WF      WF63575   5.377   0.422   9.463 -0.1964  0.2509 -0.0842
    1WF      WF63576  17.685   4.974   0.507 -0.0348 -0.1292 -0.1878
    1WF      WF63577  27.900  22.682   7.432  0.0164  0.3356 -0.1841
    1WF      WF63578  11.523  16.354   9.023  0.1563  0.0257 -0.2333
    1WF      WF63579  11.727  23.289   1.890 -0.1080 -0.0768  0.0419
    1WF      WF63580   3.806   5.168   7.449  0.0267 -0.2265  0.0500
    1WF      WF63581  10.719  20.714   7.138 -0.1276 -0.1210  0.0279
    1WF      WF63582   4.560  12.502   9.194  0.0766  0.1368  0.0897
    1WF      WF63583  13.317  16.779   1.794  0.0736  0.0443  0.1780
    1WF      WF63584   3.251   8.346   7.792 -0.1055 -0.3152 -0.2653
    1WF      WF63585  19.670   6.201   0.369 -0.0569 -0.0451  0.0476
    1WF      WF63586  12.184   6.360   1.309 -0.1286 -0.0153 -0.0456
    1WF      WF63587  25.105  25.989   1.529 -0.1438 -0.0243  0.1842
    1WF      WF63588  22.745  26.924   7.874  0.3358 -0.1255  0.2931
    1WF      WF63589   2.213  14.648   8.014  0.0987  0.0003 -0.0183
    1WF      WF63590   9.768  12.097   0.008 -0.2339 -0.0810 -0.1653
    1WF      WF63591  16.916  26.942   9.159  0.2053  0.1175  0.1747
    1WF      WF63592  28.897   6.402   0.733  0.0152  0.0093 -0.0243
    1WF      WF63593  22.863   3.013   8.245 -0.0549  0.1884 -0.0572
    1WF      WF63594   4.921  17.150   9.644  0.0265 -0.0619 -0.0939
    1WF      WF63595   9.338  21.593   1.049  0.2743  0.3244  0.1807
    1WF      WF63596   4.495  25.780   7.642 -0.1736  0.0854 -0.0285
    1WF      WF63597   9.885   9.865   1.400 -0.3088 -0.1373 -0.3008
    1WF      WF63598   4.535   6.318   0.420  0.4321  0.1056 -0.0748
    1WF      WF63599   6.555  10.641   1.669 -0.0414 -0.3036 -0.2673
    1WF      WF63600  23.142  11.008   8.832 -0.1017  0.2058  0.3343
    1WF      WF63601  15.830   9.563   9.538  0.2364 -0.3564  0.0028
    1WF      WF63602   7.495  27.433   0.376  0.0838  0.2481  0.0039
    1WF      WF63603  22.844  21.737   0.798  0.1955 -0.3883  0.1965
    1WF      WF63604   3.380  28.502   2.410  0.0844  0.1227  0.0324
    1WF      WF63605  21.903  28.793   2.481  0.1549  0.3621  0.2402
    1WF      WF63606  20.535  18.825   9.675  0.2626  0.0734 -0.0362
    1WF      WF63607  16.170  15.801   0.433 -0.0497  0.0712  0.0592
    1WF      WF63608  11.653  13.329   0.740  0.3038 -0.0256  0.4011
    1WF      WF63609  11.887  10.076   2.352  0.1328  0.0241  0.1680
    1WF      WF63610   0.779  11.696   1.359  0.2222 -0.0570 -0.2838
    1WF      WF63611  26.694   6.628   2.730  0.2712 -0.1779 -0.1471
    1WF      WF63612  20.727  26.810   0.497 -0.0615  0.2226 -0.1606
    1WF      WF63613   2.305  28.761   8.771 -0.2931  0.0271  0.1205
    1WF      WF63614   5.360  19.853   0.626 -0.0251 -0.0865 -0.1847
    1WF      WF63615  23.964   8.287   8.174  0.1685 -0.1640  0.0618
    1WF      WF63616  11.839  11.232   6.850  0.1288 -0.0383  0.1195
    1WF      WF63617   8.092  26.127   2.322 -0.2551 -0.0665 -0.0381
    1WF      WF63618   2.421  13.370   6.825 -0.1077  0.1181 -0.1555
    1WF      WF63619  21.186  24.324   1.059 -0.1026 -0.1456 -0.4375
    1WF      WF63620   9.891  28.531   1.811  0.0732 -0.1764 -0.1013
    1WF      WF63621  12.084   4.397   1.349  0.0740  0.0726  0.5688
    1WF      WF63622   4.025   4.057   1.374  0.2536 -0.1287  0.0394
    1WF      WF63623   5.501  20.855   2.502  0.1361  0.3732  0.0388
    1WF      WF63624  18.588  28.271   2.420  0.0323  0.0495  0.2165
    1WF      WF63625  27.278  25.820   7.577  0.0415 -0.0063  0.1819
    1WF      WF63626   8.220  14.501   9.120  0.1589  0.1666 -0.0288
    1WF      WF63627  11.289  16.791   9.133  0.0063 -0.2521  0.1620
    1WF      WF63628  28.256  22.925   2.508 -0.1131 -0.0865  0.1865
    1WF      WF63629  27.084  19.434   9.293 -0.2056 -0.0216  0.1187
    1WF      WF63630   3.148  22.218   8.599  0.3045 -0.1537 -0.0913
    1WF      WF63631  17.602  10.090   9.497 -0.1990 -0.0012 -0.0545
    1WF      WF63632   2.910  17.872   7.521  0.0633 -0.0325  0.0309
    1WF      WF63633  14.709   7.589   1.126  0.0516 -0.0238  0.0747
    1WF      WF63634  18.693   4.524   8.001 -0.3164 -0.0627 -0.0123
    1WF      WF63635  27.947  23.039   9.142  0.1219  0.0447 -0.0431
    1WF      WF63636   3.064  16.992   6.868 -0.0770 -0.2572  0.2131
    1WF      WF63637  19.145  26.846   1.584  0.0825 -0.0478 -0.2277
    1WF      WF63638  18.669  18.102   9.655 -0.0381 -0.0019 -0.2379
    1WF      WF63639  26.647  16.983   9.083 -0.0425  0.1610 -0.0896
    1WF      WF63640  22.836   8.629   0.265  0.0496 -0.0998 -0.0729
    1WF      WF63641   8.252  26.629   2.446  0.1844 -0.1327 -0.1119
    1WF      WF63642  22.700   3.234   0.013 -0.2491  0.0509 -0.2415
    1WF      WF63643   3.312  11.321   2.293 -0.0866 -0.0886 -0.0287
    1WF      WF63644  28.548   4.242   8.038 -0.0399 -0.0666 -0.2151
    1WF      WF63645   2.810  13.770   0.609  0.2182 -0.4143 -0.0387
    1WF      WF63646  26.222  24.450   2.784 -0.1538  0.3420  0.2499
    1WF      WF63647  15.555   0.623   9.541  0.0958 -0.1305  0.1802
    1WF      WF63648  29.220  16.233   0.158 -0.2086 -0.3546  0.1429
    1WF      WF63649  13.014   0.122   9.085  0.0608  0.0444 -0.0474
    1WF      WF63650   2.944  27.213   0.518 -0.0915 -0.2902  0.0704
    1WF      WF63651  17.002   3.276   8.865 -0.0444  0.1023  0.1352
    1WF      WF63652   3.889  18.267   0.786  0.2063  0.0494  0.1857
    1WF      WF63653  20.934   6.171   7.776  0.1276  0.2471  0.0187
    1WF      WF63654   5.370   0.398   8.521 -0.1089  0.2943  0.1507
    1WF      WF63655   6.461  22.706   7.798  0.0063 -0.0711  0.1521
    1WF      WF63656   1.940  22.278   8.199 -0.0772 -0.1150 -0.0911
    1WF      WF63657  23.519   7.440   9.487 -0.2238 -0.2788 -0.4258
    1WF      WF63658  21.731  14.149   8.422  0.1091  0.0288 -0.1618
    1WF      WF63659   4.352   2.735   0.586 -0.0009  0.0369 -0.2354
    1WF      WF63660  20.459  26.556   7.627  0.1305  0.0553 -0.2837
    1WF      WF63661  11.730  11.658   0.412 -0.0045 -0.2156 -0.0419
    1WF      WF63662   3.137  18.202   7.225  0.1971  0.0782 -0.2881
    1WF      WF63663  21.339  11.254   2.775 -0.0795 -0.0520 -0.2210
    1WF      WF63664  18.514  11.394   2.352 -0.1060  0.3645  0.0565
    1WF      WF63665  22.548   0.242   9.213 -0.1543  0.1419 -0.2868
    1WF      WF63666   0.908  24.712   1.642 -0.3358  0.2012 -0.3339
    1WF      WF63667  24.405   6.094   8.673 -0.2675  0.0549  0.2848
    1WF      WF63668  27.392  25.368   7.759  0.2881  0.3711  0.1693
    1WF      WF63669   4.324  23.768   8.158 -0.0630 -0.3199 -0.2196
    1WF      WF63670  16.226  11.696   0.958 -0.1447 -0.2366 -0.1658
    1WF      WF63671  24.744   8.278   0.631  0.0931  0.0746  0.3090
    1WF      WF63672  11.006   1.688   1.928 -0.0857 -0.0015  0.2149
    1WF      WF63673  23.683  10.912   6.152 -0.0592  0.1064 -0.1405
    1WF      WF63674  25.858   3.237   9.358  0.2058 -0.1358  0.2210
    1WF      WF63675   1.825  22.801   8.662  0.1754  0.0613 -0.1311
    1WF      WF63676  11.744  26.409   0.669  0.1349 -0.1044 -0.0984
    1WF      WF63677  19.853   5.236   1.554  0.0246  0.3880 -0.1317
    1WF      WF63678   3.723   8.998   2.349 -0.1600 -0.0387 -0.0231
    1WF      WF63679  19.705  14.404   0.551 -0.0518  0.3499 -0.0018
    1WF      WF63680   4.709  21.238   9.195 -0.1451  0.0283 -0.0318
    1WF      WF63681  27.798  25.075   7.825 -0.1081  0.0649 -0.1019
    1WF      WF63682   4.692   2.553   0.185 -0.0316 -0.3043 -0.1493
    1WF      WF63683   0.631  12.072   9.431  0.1086  0.0113 -0.1917
    1WF      WF63684  24.707  23.858   8.285  0.0459  0.1502  0.0283
    1WF      WF63685  16.899  20.410   0.890  0.1406  0.0456 -0.0080
    1WF      WF63686   1.325  26.752   0.035  0.1649 -0.1138 -0.1954
    1WF      WF63687  17.995   0.530   9.101  0.0309  0.0704 -0.2370
    1WF      WF63688   5.298  25.609   7.963 -0.0910  0.2181 -0.1158
    1WF      WF63689  16.742   1.570   0.956 -0.0901  0.1641  0.0251
    1WF      WF63690   5.742  19.412   5.506 -0.2036 -0.1387 -0.0166
    1WF      WF63691  20.262   3.354   2.102  0.0639  0.2178 -0.1169
    1WF      WF63692  15.736  25.747   8.909  0.1934 -0.2105 -0.1739
    1WF      WF63693  26.932  19.432   1.742  0.1299 -0.1482  0.0859
    1WF      WF63694   1.164   9.703   8.372  0.1113 -0.0793  0.1304
    1WF      WF63695   1.940  27.019   2.524  0.0711  0.0490  0.1310
    1WF      WF63696  14.539  23.482   0.384  0.0774 -0.2317 -0.0495
    1WF      WF63697   3.319  19.846   7.511  0.0114  0.1012  0.2585
    1WF      WF63698  10.520  20.480   0.961  0.0647  0.1113 -0.0742
    1WF      WF63699   2.336   5.189   0.648 -0.0155 -0.1557  0.1549
    1WF      WF63700  12.250  28.152   0.540  0.4189 -0.0805  0.1005
    1WF      WF63701  23.614  28.184   1.199  0.0832  0.3103  0.0770
    1WF      WF63702  20.545   6.885   1.933 -0.0656 -0.1274 -0.1400
    1WF      WF63703   4.397   5.938   0.743  0.3803 -0.0926 -0.1366
    1WF      WF63704  21.045  21.388   1.515  0.1147 -0.2294 -0.1432
    1WF      WF63705  22.677  11.875   2.524  0.1493 -0.1573 -0.1217
    1WF      WF63706   5.562   7.779   1.553  0.3807  0.1622 -0.0424
    1WF      WF63707  21.716  29.289   1.060 -0.1038 -0.0088 -0.0665
    1WF      WF63708   3.754  16.660   7.728 -0.3363 -0.1608  0.1731
    1WF      WF63709  13.862  11.446   8.827  0.1037  0.2797  0.0389
    1WF      WF63710  28.386   9.543   6.953 -0.0773 -0.0055 -0.0262
    1WF      WF63711  10.039  16.795   0.923 -0.2394 -0.0103 -0.2222
    1WF      WF63712  25.381  20.977   9.078 -0.4064  0.1223 -0.1677
    1WF      WF63713  27.184  12.098   7.673 -0.1163  0.0948  0.3310
    1WF      WF63714  26.764  18.637   2.138  0.1086 -0.0530 -0.0251
    1WF      WF63715  19.258  23.104   8.237  0.1705 -0.0575 -0.0482
    1WF      WF63716  23.085  11.414   8.510  0.0689  0.1132 -0.1867
    1WF      WF63717   7.015  18.705   0.264  0.0634  0.0663  0.0449
    1WF      WF63718  13.903   1.382   9.236 -0.2098 -0.0793 -0.0575
    1WF      WF63719  20.785  27.909   3.706  0.0120 -0.3157  0.0596
    1WF      WF63720   7.637   8.813   9.218  0.1432 -0.2805  0.0834
    1WF      WF63721   8.524  13.814   9.413 -0.0886  0.1988  0.0412
    1WF      WF63722  18.554  22.649   1.133  0.0368  0.0808  0.1622
    1WF      WF63723   5.032  14.541   1.277 -0.1163  0.1382  0.1803
    1WF      WF63724  20.520  29.073   8.832  0.3201 -0.1557  0.0725
    1WF      WF63725  26.649  25.291   0.669 -0.0515 -0.0454 -0.0697
    1WF      WF63726  11.407  15.016   0.903 -0.2204  0.1638  0.2090
    1WF      WF63727  26.425  14.672   7.612 -0.1166 -0.0811 -0.0311
    1WF      WF63728   2.822  14.871   2.755  0.2297 -0.0710  0.1163
    1WF      WF63729   0.049  23.956   1.055 -0.1954  0.0156 -0.2739
    1WF      WF63730   4.879  16.829   7.937 -0.1757 -0.0725 -0.1934
    1WF      WF63731  21.930  22.285   0.626 -0.1442  0.0789  0.0661
    1WF      WF63732  16.532   0.810   9.058  0.3051  0.1048 -0.0564
    1WF      WF63733  22.570  26.721   1.088  0.0755 -0.1484  0.1314
    1WF      WF63734  12.355   2.286   8.347  0.0125  0.1887  0.1783
    1WF      WF63735  28.195  24.886   1.898 -0.0287  0.0185 -0.2372
    1WF      WF63736  26.987  23.469   1.741  0.1584 -0.1486  0.1321
    1WF      WF63737   7.136  23.964   0.334  0.1537 -0.2302 -0.2787
    1WF      WF63738  15.671   3.843   0.116  0.0972 -0.0201 -0.1830
    1WF      WF63739  21.481  21.663   1.550 -0.1742  0.0254  0.0853
    1WF      WF63740  16.600   1.702   2.566 -0.1493 -0.0914  0.0770
    1WF      WF63741  29.262  10.517   8.273 -0.2930 -0.0810 -0.2145
    1WF      WF63742   9.313   3.054   9.441  0.3003  0.1238 -0.1458
    1WF      WF63743  18.172  11.330   2.747  0.0752 -0.0136 -0.1068
    1WF      WF63744  28.296  11.424   6.261 -0.1168  0.0340  0.1058
    1WF      WF63745  18.646  10.208   1.355  0.2101 -0.1677 -0.2923
    1WF      WF63746  14.420   1.444   1.441 -0.1483 -0.1260 -0.1253
    1WF      WF63747  17.780  10.536   1.343  0.1019  0.1851  0.2327
    1WF      WF63748  21.248  19.759   2.435  0.0002  0.1427  0.2130
    1WF      WF63749  14.450  28.154   0.593 -0.0395  0.1021  0.4960
    1WF      WF63750   1.570   3.625   8.280 -0.2262  0.1579 -0.1082
    1WF      WF63751  25.874  12.856   9.216  0.0880  0.2242  0.0940
    1WF      WF63752  19.937   3.576   7.953 -0.1660 -0.0458 -0.0242
    1WF      WF63753  27.796  10.292   0.696 -0.0261  0.0837  0.0883
    1WF      WF63754  19.624  25.807   8.848 -0.1160  0.0294 -0.1286
    1WF      WF63755  20.761  18.016   3.054  0.0727 -0.2289 -0.0066
    1WF      WF63756   8.083  11.060   0.184 -0.1185  0.0889  0.2138
    1WF      WF63757  23.956  25.700   0.798  0.2038 -0.1151  0.0172
    1WF      WF63758  11.016   7.173   0.691  0.2430  0.0383 -0.1162
    1WF      WF63759  11.906  17.898   0.064 -0.0429  0.1409 -0.1751
    1WF      WF63760  12.161  15.896   9.352  0.1598 -0.0184  0.1119
    1WF      WF63761  13.197  10.301   1.327 -0.1219 -0.1730  0.1027
    1WF      WF63762  23.578  14.022   8.414 -0.0564 -0.3331 -0.0795
    1WF      WF63763   9.546  28.684   2.130  0.1842  0.1995 -0.2062
    1WF      WF63764  28.126   3.107   9.444  0.5702  0.1221  0.1540
    1WF      WF63765  27.998   9.884   1.230 -0.0818 -0.0601  0.0564
    1WF      WF63766   9.982  16.307   1.060 -0.0411  0.3168  0.0807
    1WF      WF63767  11.480   1.637   7.142 -0.0993 -0.2076  0.0125
    1WF      WF63768   0.793   0.270   1.905  0.1621 -0.2941  0.0138
    1WF      WF63769  17.229   5.990   2.404  0.0994  0.2321 -0.3385
    1WF      WF63770  14.461  24.745   8.508 -0.3288  0.0212 -0.0799
    1WF      WF63771  13.153  22.950   1.600  0.1007  0.1117  0.0035
    1WF      WF63772  23.843  23.737   7.530  0.1000  0.0621  0.1888
    1WF      WF63773  19.499  23.471   8.809 -0.0596 -0.0458 -0.1202
    1WF      WF63774  15.325  16.243   8.524  0.3942 -0.1805  0.3552
    1WF      WF63775   0.520  18.756   0.310  0.0484 -0.2376 -0.2869
    1WF      WF63776   4.747   2.166   2.715  0.4668  0.1751 -0.0154
    1WF      WF63777  28.662  12.027   8.236  0.0578 -0.0019  0.1429
    1WF      WF63778  24.118  25.495   0.334  0.2413 -0.2918  0.4012
    1WF      WF63779   6.938  16.905   9.377  0.3805 -0.3002  0.0715
    1WF      WF63780  29.132  15.799   6.174  0.0539  0.1754 -0.0391
    1WF      WF63781  19.970   3.153   0.904 -0.0752 -0.2546  0.2141
    1WF      WF63782   5.502   3.919   0.756  0.0158 -0.4222 -0.1899
    1WF      WF63783  14.106  18.271   0.353 -0.1254  0.2348 -0.0117
    1WF      WF63784  22.861  12.332   8.727  0.0821  0.0507  0.0677
    1WF      WF63785  18.640   3.054   7.319 -0.1725 -0.2280  0.0983
    1WF      WF63786   1.953  27.717   0.882 -0.2976 -0.1521 -0.1846
    1WF      WF63787  12.520   7.725   1.937 -0.1098 -0.0711  0.0768
    1WF      WF63788  14.763   1.851   1.677  0.0043 -0.0755 -0.4218
    1WF      WF63789   6.731  20.001   2.199 -0.1708 -0.0283  0.1883
    1WF      WF63790  16.755   7.302   8.851  0.2185 -0.4445 -0.1025
    1WF      WF63791  21.943  25.728   6.933 -0.2109 -0.2941 -0.1150
    1WF      WF63792   6.467  17.069   0.750 -0.0880 -0.1766  0.2722
    1WF      WF63793  12.367   7.336   9.679  0.0590 -0.4695  0.0724
    1WF      WF63794  18.439  28.989   7.213 -0.0156 -0.2429  0.1109
    1WF      WF63795  28.427   4.879   7.081  0.0492  0.1429  0.3457
    1WF      WF63796  17.227   5.713   0.740  0.0476 -0.0450 -0.1227
    1WF      WF63797  23.181  24.932   8.279  0.0707 -0.2816  0.0924
    1WF      WF63798   9.613  10.304   1.563  0.1166  0.1510  0.0509
    1WF      WF63799   4.671   1.203   7.475  0.2644 -0.0748 -0.1216
    1WF      WF63800  20.280  10.971   0.165 -0.2799  0.0335  0.1749
    1WF      WF63801  26.923  14.032   8.336 -0.1894  0.2924 -0.1427
    1WF      WF63802  15.010   7.128   1.779  0.0731  0.1995  0.3582
    1WF      WF63803  25.743  13.637   7.738 -0.1142  0.0260  0.2036
    1WF      WF63804   0.235  11.092   0.102 -0.1988 -0.2478 -0.1510
    1WF      WF63805  25.454  25.779   7.667  0.1503 -0.1860  0.0137
    1WF      WF63806   7.259  26.624   9.137 -0.1941  0.1055 -0.0208
    1WF      WF63807  16.196  23.466   0.615  0.2071  0.0401 -0.2403
    1WF      WF63808   9.109   9.189   8.479  0.0118  0.0545 -0.0130
    1WF      WF63809  26.043  18.935   7.518 -0.0282  0.0940  0.1022
    1WF      WF63810  29.218   4.380   0.464  0.1500 -0.1914  0.0413
    1WF      WF63811  28.277   7.281   1.618 -0.2967 -0.3527 -0.1397
    1WF      WF63812  21.273  22.424   6.973 -0.1667 -0.2460  0.4034
    1WF      WF63813  26.105  13.403   2.254  0.2307 -0.2187 -0.2890
    1WF      WF63814   5.931  13.158   0.761 -0.2385  0.4143 -0.0796
    1WF      WF63815  13.682  27.981   2.569 -0.0837 -0.3007 -0.0472
    1WF      WF63816  21.312   7.453   0.554  0.0671  0.5218  0.2932
    1WF      WF63817  21.855   1.266   9.611 -0.1296 -0.0156  0.4020
    1WF      WF63818  20.828  25.298   6.403  0.0246 -0.2187 -0.0675
    1WF      WF63819  28.910  19.356   1.723 -0.0973 -0.0239 -0.0524
    1WF      WF63820  10.192  11.589   1.010  0.1123 -0.3467  0.0708
    1WF      WF63821  18.991  24.484   8.950  0.1405  0.2154  0.3719
    1WF      WF63822   7.656  12.994   9.625 -0.0841 -0.3372  0.1192
    1WF      WF63823  20.078  12.332   6.602  0.0691  0.2262  0.0530
    1WF      WF63824   2.196  18.526   7.244 -0.1723  0.1469 -0.0018
    1WF      WF63825   5.214   1.517   8.871 -0.0221  0.0430 -0.2391
    1WF      WF63826  22.067   3.671   1.730 -0.1320 -0.3726  0.2226
    1WF      WF63827  25.459   4.682   8.814  0.1503  0.3782 -0.1604
    1WF      WF63828  19.461   3.088   9.125 -0.2166  0.0847 -0.2053
    1WF      WF63829  27.129  29.147   8.155 -0.1904  0.0978 -0.0223
    1WF      WF63830  22.039  12.676   0.729 -0.1198 -0.0858  0.0134
    1WF      WF63831  15.606  21.274   0.106 -0.1653  0.0767  0.1162
    1WF      WF63832   2.567  23.639   1.962 -0.0187  0.1241 -0.2907
    1WF      WF63833  23.367   8.891   3.158 -0.0961  0.2123 -0.0187
    1WF      WF63834  26.678  26.351   3.055 -0.0067 -0.2382 -0.3016
    1WF      WF63835  25.779   8.740   0.741 -0.2763 -0.0157  0.1104
    1WF      WF63836   6.386  28.197   3.732 -0.1052  0.0589 -0.0857
    1WF      WF63837  16.658  23.159   0.923 -0.0634 -0.1211 -0.1054
    1WF      WF63838   2.878  11.304   0.354 -0.1195  0.0748  0.0184
    1WF      WF63839  16.657   4.305   0.863 -0.0856  0.2882  0.1159
    1WF      WF63840  24.789   5.877   8.337 -0.1452  0.2184 -0.0109
    1WF      WF63841  29.261   1.729   8.954  0.2016 -0.0793 -0.3324
    1WF      WF63842  19.151  27.248   0.102 -0.1056  0.1088  0.1657
    1WF      WF63843  21.090  10.708   8.984 -0.0347  0.0619 -0.1237
    1WF      WF63844   0.323  21.781   1.083  0.1321  0.1109 -0.0391
    1WF      WF63845  18.746   6.999   0.565 -0.2260 -0.0708 -0.0323
    1WF      WF63846   9.644  18.654   1.617 -0.2406 -0.0785 -0.2154
    1WF      WF63847  17.021   6.423   2.108  0.0559 -0.0167  0.3445
    1WF      WF63848  16.058   5.704   2.522  0.1838  0.3419 -0.2386
    1WF      WF63849   1.465  15.861   9.620 -0.0247 -0.1738  0.3341
    1WF      WF63850  22.214  19.942   8.938 -0.2797  0.0255  0.0163
    1WF      WF63851   8.111   4.574   8.561 -0.0011 -0.2313  0.2453
    1WF      WF63852   8.255   4.248   8.229  0.2578 -0.3361 -0.0110
    1WF      WF63853  23.699   8.314   7.712  0.4219 -0.1143 -0.2579
    1WF      WF63854   9.135   3.997   8.531  0.4350 -0.2688  0.1210
    1WF      WF63855  28.914  21.612   5.917  0.0630 -0.1072 -0.0765
    1WF      WF63856  22.422   3.287   6.694  0.0240 -0.2118 -0.2505
    1WF      WF63857  24.295  18.473   9.189  0.4323 -0.1035 -0.0442
    1WF      WF63858  13.557  26.307   2.212  0.0856  0.0826 -0.0577
    1WF      WF63859  26.294   5.623   0.212 -0.2958 -0.1734 -0.2760
    1WF      WF63860   0.480   3.119   1.705  0.3235 -0.1128 -0.0583
    1WF      WF63861   9.398  27.301   7.988 -0.0556 -0.0240 -0.0687
    1WF      WF63862  13.631  19.769   8.588 -0.3555 -0.1790 -0.0651
    1WF      WF63863  20.934  11.399   2.402  0.1072 -0.0321  0.0358
    1WF      WF63864  17.075   9.089   0.771  0.0831 -0.1277 -0.2448
    1WF      WF63865  25.934   0.903   1.704  0.1416  0.1516 -0.1183
    1WF      WF63866   3.947  24.719   9.242 -0.0029 -0.1241 -0.0312
    1WF      WF63867   3.204   2.239   2.422  0.2742 -0.1239 -0.1815
    1WF      WF63868  20.697  26.805   0.984 -0.2193  0.0243 -0.2655
    1WF      WF63869  18.607  17.664   9.233  0.1170 -0.0069 -0.0262
    1WF      WF63870   8.269  19.286   7.381  0.1855 -0.1032  0.0628
    1WF      WF63871   9.749  17.017   8.331 -0.2254  0.2276 -0.4067
    1WF      WF63872  15.048   3.606   9.277 -0.0976  0.0076 -0.2493
    1WF      WF63873  16.989  17.327   0.678 -0.0092  0.2130 -0.0301
    1WF      WF63874  17.733   1.393   1.123  0.0582  0.1042  0.0282
    1WF      WF63875  24.990  19.191   1.801 -0.1191 -0.1227 -0.1354
    1WF      WF63876   0.509  13.814   6.730 -0.0513  0.1264  0.1730
    1WF      WF63877  13.054  15.528   9.002  0.1887  0.1130  0.2684
    1WF      WF63878   3.579  24.335   0.575  0.0751 -0.2870 -0.2330
    1WF      WF63879   5.355   8.491   8.507 -0.3626 -0.0078 -0.1691
    1WF      WF63880  24.782  19.677   7.983  0.0689 -0.2770  0.0040
    1WF      WF63881  11.630   8.302   8.902  0.0270 -0.0984 -0.1165
    1WF      WF63882   9.555  11.032   9.203 -0.2488  0.1501 -0.2524
    1WF      WF63883  27.634  13.612   0.553 -0.3130  0.1538 -0.0557
    1WF      WF63884  14.072   1.068   1.452 -0.2737 -0.2955  0.2404
    1WF      WF63885  28.836  20.544   0.876 -0.0288 -0.2477  0.3011
    1WF      WF63886  17.162  17.262   8.738  0.1083 -0.0178 -0.1080
    1WF      WF63887  19.577  27.126   1.773  0.1438  0.1126  0.1412
    1WF      WF63888  28.422   7.242   8.602 -0.2213  0.3125  0.1524
    1WF      WF63889  20.058  27.644   8.470 -0.0727  0.0390  0.3395
    1WF      WF63890   8.985   7.370   1.417 -0.0247  0.1678  0.2687
    1WF      WF63891   7.622   2.390   1.897 -0.0263  0.2644 -0.0021
    1WF      WF63892  24.571   4.392   8.454  0.2675  0.2319  0.0401
    1WF      WF63893   9.301   2.374   1.895  0.3446  0.1620  0.3099
    1WF      WF63894   0.986   9.533   9.289  0.0578  0.2983 -0.0302
    1WF      WF63895  25.041   1.869   8.832 -0.0073  0.0501 -0.3152
    1WF      WF63896  18.629  25.031   8.203 -0.1275  0.4104  0.0268
    1WF      WF63897  26.065  29.192   1.043  0.0651  0.0337  0.1022
    1WF      WF63898   1.129   0.261   0.355  0.0832  0.0127  0.1689
    1WF      WF63899  15.241   2.044   9.170 -0.3815 -0.0802 -0.1080
    1WF      WF63900  24.955  25.606   1.221  0.0316  0.0073 -0.1777
    1WF      WF63901  18.776  13.420   0.589 -0.0181  0.0501 -0.0999
    1WF      WF63902  16.756  14.450   0.815  0.1563 -0.0644 -0.2434
    1WF      WF63903  19.090  10.437   1.258 -0.1714  0.2391  0.1325
    1WF      WF63904   8.607  22.486   6.146  0.0484  0.0469  0.2112
    1WF      WF63905  16.632  25.546   8.831  0.0579  0.1406  0.3396
    1WF      WF63906  28.784  20.030   8.158 -0.3732 -0.1685 -0.0829
    1WF      WF63907  10.872  20.300   7.340 -0.2064  0.2082  0.1191
    1WF      WF63908  29.339   1.922   8.477  0.3374  0.0096  0.1277
    1WF      WF63909  17.240  15.254   9.667  0.0973  0.1491 -0.0279
    1WF      WF63910  26.395   1.182   8.415  0.4412 -0.0311  0.1696
    1WF      WF63911  28.092  24.170   0.910  0.1023 -0.0824  0.0305
    1WF      WF63912  19.985  25.698   6.582 -0.0423  0.1746 -0.3179
    1WF      WF63913  27.702   2.574   8.446  0.1796 -0.1571  0.2021
    1WF      WF63914   5.916  14.651   9.227 -0.0168 -0.1995 -0.0427
    1WF      WF63915  22.433  23.193   8.338 -0.2385 -0.0303 -0.1081
    1WF      WF63916  21.900  26.052   0.894 -0.1330  0.0050  0.0077
    1WF      WF63917  15.060  17.819   1.646 -0.0284  0.2592  0.0690
    1WF      WF63918  24.218   3.555   1.002  0.3417  0.0637  0.0710
    1WF      WF63919   4.906  19.204   7.204 -0.1385 -0.0641 -0.4264
    1WF      WF63920  25.793   8.712   8.586 -0.0819  0.0843 -0.3475
    1WF      WF63921   4.250  14.944   1.685 -0.1052  0.1685 -0.0699
    1WF      WF63922  18.916   0.950   0.512 -0.1748 -0.2218 -0.3131
    1WF      WF63923  26.427   1.002   9.262 -0.0993 -0.1227 -0.2156
    1WF      WF63924   0.758  15.533   5.628 -0.2639  0.2087  0.1989
    1WF      WF63925   0.861   5.575   9.359 -0.2032 -0.1981  0.3347
    1WF      WF63926   2.298  13.258   7.301 -0.0420  0.3282 -0.0079
    1WF      WF63927  13.573  23.312   8.169 -0.0486  0.1980 -0.0836
    1WF      WF63928  24.039  13.770   7.661  0.2846  0.0754  0.1038
    1WF      WF63929   5.049   3.706   0.599  0.2441 -0.1791 -0.1417
    1WF      WF63930  23.308   5.451   8.557  0.0466  0.1649  0.0342
    1WF      WF63931  26.509  24.711   8.520 -0.1429  0.1116 -0.1481
    1WF      WF63932  15.519  14.775   9.538 -0.3635  0.2914 -0.1355
    1WF      WF63933  15.525   9.198   2.256 -0.1106 -0.0924  0.2998
    1WF      WF63934   2.990  26.241   9.689 -0.0192 -0.0881  0.4004
    1WF      WF63935   0.629  23.198   8.709 -0.2522  0.2352 -0.1759
    1WF      WF63936  19.441  18.760   1.763  0.0735 -0.0646 -0.0523
    1WF      WF63937  21.174  23.173   3.171  0.3044 -0.1889 -0.3482
    1WF      WF63938   3.078  25.859   1.879  0.0629  0.0303  0.0779
    1WF      WF63939   7.826  28.699   2.981  0.0798  0.1201  0.1807
    1WF      WF63940  19.543  26.894   0.435  0.2009 -0.0887 -0.0851
    1WF      WF63941  28.009  23.338   9.648  0.3744  0.1277 -0.1653
    1WF      WF63942   3.207  26.622   2.286 -0.5720 -0.1961 -0.0757
    1WF      WF63943  13.985  23.725   8.008 -0.1079  0.0620  0.0957
    1WF      WF63944  17.703   5.485   0.700  0.2290  0.0933 -0.1026
    1WF      WF63945  25.240   5.429   1.048  0.2262  0.0563 -0.1279
    1WF      WF63946  18.258  21.095   1.603  0.2010 -0.0547 -0.0096
    1WF      WF63947  29.179   3.881   0.710 -0.1428  0.2204  0.0144
    1WF      WF63948   4.077  24.522   0.732  0.0621  0.2767 -0.2453
    1WF      WF63949   9.447  19.753   7.547 -0.0417  0.0297  0.2457
    1WF      WF63950  15.545   5.732   2.452  0.1222  0.0024 -0.0947
    1WF      WF63951   1.563   9.477   8.574  0.1651 -0.3540  0.2190
    1WF      WF63952   2.722  21.882   9.110  0.1123  0.0742  0.0608
    1WF      WF63953   2.126  10.346   9.099 -0.1534 -0.1374  0.1708
    1WF      WF63954  19.074  13.107   7.957  0.0230 -0.0680 -0.2009
    1WF      WF63955  29.024  19.118   2.176 -0.2300  0.0732 -0.0847
    1WF      WF63956  11.891  26.885   9.520  0.0770 -0.1051 -0.1395
    1WF      WF63957   0.282  23.856   8.011 -0.1893 -0.1574  0.3508
    1WF      WF63958   4.999  20.955   8.348  0.1770  0.2169  0.0596
    1WF      WF63959  28.930   4.816   8.586 -0.1143 -0.0775  0.1107
    1WF      WF63960  15.774  18.543   0.912 -0.2705 -0.1506 -0.0223
    1WF      WF63961  22.848  15.962   2.061  0.0470 -0.0261  0.0320
    1WF      WF63962  15.590  25.820   0.760 -0.2838  0.0212 -0.1799
    1WF      WF63963   3.193   8.959   6.147  0.1753  0.1991 -0.1420
    1WF      WF63964  25.225  26.262   1.975  0.1155  0.1617  0.0456
    1WF      WF63965  10.459   5.022   0.753 -0.2782  0.3407  0.1141
    1WF      WF63966  27.787  28.664   1.122 -0.1453 -0.0884 -0.0541
    1WF      WF63967  24.272  14.445   0.020 -0.0030  0.4370  0.2611
    1WF      WF63968  29.151   8.773   6.785 -0.2827  0.0498  0.3367
    1WF      WF63969   7.167   2.768   1.056 -0.4111 -0.0848  0.1017
    1WF      WF63970  19.221  29.206   1.030  0.1158 -0.0424  0.0768
    1WF      WF63971   1.764   7.022   9.453  0.0661 -0.0029 -0.1512
    1WF      WF63972   8.078  15.626   0.722 -0.1304 -0.2942  0.1399
    1WF      WF63973  13.466  24.937   1.363 -0.1072  0.0724 -0.1317
    1WF      WF63974   3.376  21.991   8.161  0.0001  0.0206 -0.1305
    1WF      WF63975  21.123  13.729   8.100 -0.0352 -0.1156 -0.3739
    1WF      WF63976   1.009  29.194   0.153  0.1724 -0.2299  0.0360
    1WF      WF63977  20.083  17.440   8.850 -0.0252  0.0513  0.4072
    1WF      WF63978   4.236  25.474   6.192  0.2808 -0.0701  0.2475
    1WF      WF63979  23.977   6.343   7.367  0.0671 -0.2781  0.0172
    1WF      WF63980  20.058  25.639   9.128  0.0989  0.1020  0.2308
    1WF      WF63981   9.197  28.218   2.057  0.2605 -0.0730 -0.0980
    1WF      WF63982  22.966   9.314   8.070  0.0887 -0.0530 -0.1789
    1WF      WF63983  17.896   0.772   1.683  0.1138  0.0800 -0.0267
    1WF      WF63984  14.402  16.413   8.572 -0.3133 -0.0720 -0.0302
    1WF      WF63985  22.424  13.311   0.580 -0.1089  0.0341 -0.3226
    1WF      WF63986  10.428  27.602   9.200 -0.0793 -0.0196  0.0408
    1WF      WF63987   4.282  29.309   7.210 -0.2678 -0.6102  0.0207
    1WF      WF63988   0.771  26.215   9.324  0.1738 -0.3636  0.1793
    1WF      WF63989  26.696   5.562   0.475  0.1604  0.1578  0.0960
    1WF      WF63990  25.963  10.127   9.545 -0.0517  0.1670 -0.1777
    1WF      WF63991  22.350  15.459   0.060 -0.1847 -0.1048  0.1946
    1WF      WF63992  28.971  19.815   9.122  0.1561 -0.0356 -0.0780
    1WF      WF63993   4.971  16.012   6.144 -0.3530  0.2029 -0.2287
    1WF      WF63994   0.593   3.282   7.744  0.0216 -0.0329 -0.1776
    1WF      WF63995   4.777  26.851   7.044  0.0216  0.2214 -0.0004
    1WF      WF63996  23.763  12.440   1.288  0.0061  0.0105  0.2301
    1WF      WF63997  14.681  24.253   8.318 -0.1810 -0.1055  0.0164
    1WF      WF63998  12.665  18.466   7.108  0.2401 -0.0059 -0.1262
    1WF      WF63999  17.952  25.324   6.815  0.1457  0.3565 -0.1754
    1WF      WF64000  23.581  28.261   9.137  0.2789 -0.1787  0.0265
    1WF      WF64001  16.882  27.895   0.447 -0.1488 -0.0042  0.0849
    1WF      WF64002  18.018  22.591   1.159  0.1032 -0.0784 -0.2455
    1WF      WF64003  14.241   3.792   9.561  0.0426 -0.3427 -0.3047
    1WF      WF64004  15.411  21.432   0.507 -0.2370 -0.0647  0.6500
    1WF      WF64005   2.562   2.307   2.623 -0.0220 -0.0796  0.1306
    1WF      WF64006   4.888   5.346   1.313  0.0529  0.0906  0.0458
    1WF      WF64007  14.831  18.257   1.812  0.0943  0.2796  0.2523
    1WF      WF64008   3.444  19.450   7.803 -0.1822 -0.5518  0.1804
    1WF      WF64009  19.860  14.832   0.319  0.1862  0.2413  0.1269
    1WF      WF64010   2.390  25.478   9.619 -0.0598 -0.1782 -0.2303
    1WF      WF64011   5.910  13.149   2.210  0.1380  0.1227  0.1297
    1WF      WF64012   1.373   7.157   0.635 -0.0040 -0.2524  0.1070
    1WF      WF64013  29.231  13.937   0.657 -0.2053 -0.0695  0.2720
    1WF      WF64014  26.398  26.993   0.238 -0.1222  0.0095  0.2874
    1WF      WF64015  15.701  14.392   9.177 -0.1810  0.1724  0.0013
    1WF      WF64016  17.529   9.221   1.415  0.0304 -0.0159  0.0843
    1WF      WF64017   1.083   1.444   7.286 -0.0543 -0.0107  0.0810
    1WF      WF64018  19.061   9.982   1.604  0.0679  0.1353  0.1491
    1WF      WF64019  15.917  16.780   8.882  0.0480 -0.1035  0.0758
    1WF      WF64020  20.100   7.786   1.904 -0.0211  0.1329  0.0135
    1WF      WF64021   7.762   8.559   2.603 -0.0504  0.1895 -0.0567
    1WF      WF64022  18.625   5.980   9.237 -0.0056 -0.0296 -0.2507
    1WF      WF64023   0.479  23.883   0.612 -0.2396  0.3838 -0.4003
    1WF      WF64024  13.400   6.284   0.434  0.0545 -0.0295 -0.1226
    1WF      WF64025  26.661  27.652   6.403 -0.0076  0.1876 -0.0032
    1WF      WF64026  24.782  21.669   6.567 -0.0350  0.2633 -0.1728
    1WF      WF64027   6.953  19.119   0.506  0.2402 -0.1726  0.2185
    1WF      WF64028  14.217  15.741   0.302 -0.0080  0.2498  0.0483
    1WF      WF64029  26.280  12.543   9.172 -0.0475 -0.2136  0.1569
    1WF      WF64030  26.751  26.974   1.919  0.0418  0.0166 -0.0095
    1WF      WF64031   3.314  11.902   2.205  0.0871  0.0011 -0.0540
    1WF      WF64032  14.539  18.737   8.138 -0.1193 -0.0640 -0.1392
    1WF      WF64033   4.082  22.752   1.238 -0.3934 -0.0022 -0.0203
    1WF      WF64034   1.420   4.632   6.842 -0.0255  0.2462  0.1080
    1WF      WF64035  14.208  24.130   8.201  0.0893 -0.2974  0.3455
    1WF      WF64036  14.755   6.008   4.086  0.2413 -0.1371  0.2573
    1WF      WF64037   5.600   5.613   8.202 -0.1495  0.2109  0.0083
    1WF      WF64038  24.806   1.054   0.019  0.0217  0.1600  0.2068
    1WF      WF64039   1.820  23.510   9.076  0.1237 -0.2870 -0.1183
    1WF      WF64040  22.792   4.237   1.827 -0.2374  0.1074 -0.0674
    1WF      WF64041  22.871  22.164   6.425  0.1922  0.2157  0.2530
    1WF      WF64042   1.449   5.754   1.466  0.0693  0.2501 -0.1915
    1WF      WF64043  15.989   5.392   0.120  0.0538 -0.0787 -0.3072
    1WF      WF64044  15.302  26.796   4.005 -0.1103 -0.2640  0.1984
    1WF      WF64045  17.528  19.216   9.148 -0.0784 -0.1458  0.0601
    1WF      WF64046   9.844  17.690   8.204  0.0498  0.1090  0.1350
    1WF      WF64047   6.544   6.666   6.724  0.1879  0.0462  0.1585
    1WF      WF64048  19.302  26.541   1.199  0.0904 -0.1702 -0.0099
    1WF      WF64049   8.435   9.221   1.354 -0.0601 -0.1968 -0.0958
    1WF      WF64050   6.590   5.222   1.289 -0.2681  0.1690 -0.2257
    1WF      WF64051   9.311   7.632   1.188 -0.0049 -0.1897 -0.1322
    1WF      WF64052   3.605  15.939   0.120 -0.1254  0.1169  0.4262
    1WF      WF64053  17.047   3.715   8.559 -0.0051  0.0951 -0.0523
    1WF      WF64054  29.246  18.922   1.709 -0.1318 -0.1707 -0.4729
    1WF      WF64055  14.900  27.470   2.106  0.2073  0.1207 -0.0285
    1WF      WF64056   8.907  14.228   0.726 -0.1509  0.0562 -0.0447
    1WF      WF64057  10.670   4.812   0.362  0.0036  0.3281 -0.2118
    1WF      WF64058  13.010  14.483   9.490 -0.1082 -0.2514  0.1536
    1WF      WF64059   6.628  13.102   3.388 -0.4093  0.2612 -0.1712
    1WF      WF64060   1.261  13.804   1.212 -0.0281  0.1308 -0.2798
    1WF      WF64061  26.504  16.670   7.690  0.1765 -0.3224  0.1066
    1WF      WF64062  14.015   4.214   0.333  0.0559  0.0075  0.0918
    1WF      WF64063  20.840   5.786   2.342 -0.1683  0.0520 -0.1141
    1WF      WF64064  16.930  14.088   1.587 -0.2780 -0.1924 -0.0188
    1WF      WF64065   3.130  21.515   8.952 -0.2037 -0.0181 -0.1285
    1WF      WF64066  20.092   2.357   8.972  0.0575 -0.2222 -0.1321
    1WF      WF64067  27.129  27.366   8.971 -0.0122  0.0016 -0.2504
    1WF      WF64068  27.179  15.718   8.536 -0.0069 -0.1000 -0.0043
    1WF      WF64069   1.716   1.759   8.726 -0.0460 -0.1899 -0.5034
    1WF      WF64070  17.326   6.709   9.564  0.0634  0.0103 -0.2515
    1WF      WF64071  19.595  23.825   6.989  0.1135  0.1161 -0.1728
    1WF      WF64072   9.733   7.534   2.105 -0.1640  0.0452 -0.4985
    1WF      WF64073   2.695  17.575   6.211  0.1689  0.2865  0.1627
    1WF      WF64074  14.893  17.390   1.505  0.0465  0.2974  0.0009
    1WF      WF64075   2.754  17.226   6.504 -0.0279  0.1888  0.1094
    1WF      WF64076   4.216   0.862   8.913 -0.0524 -0.2047 -0.0729
    1WF      WF64077  14.944   0.243   1.758  0.0694  0.1648 -0.2069
    1WF      WF64078   5.012   2.151   2.235 -0.4006  0.3186  0.0741
    1WF      WF64079  20.217  21.044   2.774 -0.2559  0.0697 -0.0444
    1WF      WF64080   8.495  14.220   8.792  0.0809 -0.1495 -0.0069
    1WF      WF64081   3.791   9.764   9.134 -0.1391 -0.1708 -0.2373
    1WF      WF64082  25.344  27.367   7.538 -0.1172 -0.1035  0.3180
    1WF      WF64083  16.829  21.575   1.783 -0.1597  0.3157  0.0868
    1WF      WF64084  29.133  14.925   5.777 -0.2290  0.2632  0.2451
    1WF      WF64085  17.020  11.151   8.054  0.0644 -0.1729  0.3549
    1WF      WF64086  27.642  23.947   1.151  0.2233 -0.4049  0.0735
    1WF      WF64087  14.575   3.399   9.297 -0.0702  0.0689  0.0233
    1WF      WF64088  20.548   8.055   8.351  0.0911 -0.1719 -0.0223
    1WF      WF64089  23.799   6.787   6.191 -0.0933 -0.2149 -0.2209
    1WF      WF64090   7.341  10.949   0.143  0.3821 -0.0943  0.0718
    1WF      WF64091  20.508  11.440   0.113  0.0040 -0.0990  0.0057
    1WF      WF64092  21.592   3.362   0.788 -0.0917  0.0427 -0.2118
    1WF      WF64093   3.424  21.687   8.545  0.0404 -0.0425  0.0270
    1WF      WF64094  24.242  23.765   7.769 -0.2081 -0.0642  0.0618
    1WF      WF64095  21.773  17.072   8.412  0.0108 -0.3188  0.0111
    1WF      WF64096   1.164  28.996   8.228  0.3208  0.3182 -0.0572
    1WF      WF64097  26.471  11.105   0.628 -0.2421  0.0790 -0.2137
    1WF      WF64098   7.963   6.498   7.517 -0.1591  0.1188  0.0105
    1WF      WF64099   0.939  18.145   1.723  0.0520 -0.2143  0.0009
    1WF      WF64100  11.375  24.509   9.222 -0.0617 -0.2024  0.2509
    1WF      WF64101   5.914  12.174   8.595  0.2652 -0.0849 -0.0897
    1WF      WF64102  21.256  20.939   8.154 -0.0738  0.2637  0.2237
    1WF      WF64103  24.370  19.958   3.335  0.0932 -0.0997 -0.1449
    1WF      WF64104   7.575  22.645   6.233  0.1317  0.1055 -0.0198
    1WF      WF64105   1.666  23.060   9.099  0.0426  0.0511 -0.2827
    1WF      WF64106  10.818   6.448   2.791 -0.0712  0.1499  0.0787
    1WF      WF64107   3.495  29.292   7.446 -0.1119  0.2623  0.0046
    1WF      WF64108   2.092  21.701   2.014  0.1324 -0.4711  0.1753
    1WF      WF64109   8.746   9.514   8.377  0.2524 -0.1024  0.0549
    1WF      WF64110  12.461  12.402   1.066 -0.2029 -0.1936  0.0612
    1WF      WF64111  26.767  17.088   7.621  0.0187  0.3473 -0.2055
    1WF      WF64112   6.174  20.176   0.177 -0.0999 -0.3650 -0.0002
    1WF      WF64113   4.921  16.205   9.142 -0.0890 -0.0419 -0.1856
    1WF      WF64114  25.066   7.720   7.635  0.2997  0.0259 -0.1119
    1WF      WF64115  21.630  27.078   8.502  0.0243 -0.0772 -0.0247
    1WF      WF64116  27.771  22.242   0.457  0.0084 -0.1468 -0.0914
    1WF      WF64117   3.505  19.509   9.422  0.3629 -0.0558 -0.0504
    1WF      WF64118  10.264  22.581   0.291 -0.0350 -0.1599  0.2649
    1WF      WF64119  26.365   0.190   1.207 -0.2212 -0.0689  0.0659
    1WF      WF64120  24.288  18.601   8.714  0.1705 -0.4332 -0.3212
    1WF      WF64121  20.548   0.707   7.322 -0.3966  0.0875  0.0032
    1WF      WF64122  11.131   9.958   8.761 -0.2517  0.1543  0.1425
    1WF      WF64123  14.827  11.789   8.684 -0.1146  0.4691 -0.2333
    1WF      WF64124   0.316  22.274   1.049 -0.3805  0.0564 -0.1265
    1WF      WF64125   4.658  26.330   0.803  0.1321 -0.0931 -0.0222
    1WF      WF64126  12.876  18.608   9.065  0.1978  0.0733  0.0469
    1WF      WF64127  27.743  20.020   0.301 -0.1978 -0.0083  0.4088
    1WF      WF64128  28.167   5.045   7.688  0.1480 -0.1878  0.1441
    1WF      WF64129  15.244  22.237   0.655  0.1226  0.1545 -0.1114
    1WF      WF64130  14.921  15.794   0.778  0.0424 -0.1660 -0.0787
    1WF      WF64131  16.089  22.090   1.395 -0.0261 -0.1221  0.4950
    1WF      WF64132  27.749   5.573   0.529  0.1825  0.0117 -0.3143
    1WF      WF64133   3.295  11.313   8.248 -0.3381  0.1593 -0.0681
    1WF      WF64134  19.098   6.532   1.735 -0.1741  0.0384  0.1370
    1WF      WF64135  26.015  16.694   7.751 -0.0529  0.1185 -0.0288
    1WF      WF64136  27.073  12.536   8.605 -0.1570 -0.2434 -0.0431
    1WF      WF64137   2.421  13.871   0.330 -0.0040  0.0817 -0.2141
    1WF      WF64138  10.445  16.052   0.992 -0.1553 -0.0355 -0.0851
    1WF      WF64139  11.937   1.999   0.698 -0.1654 -0.0579 -0.0466
    1WF      WF64140  16.535  27.816   0.054 -0.1754 -0.4054  0.1129
    1WF      WF64141  15.142   7.029   2.351  0.0075  0.1327  0.1562
    1WF      WF64142   3.476  17.101   1.387 -0.0872  0.0886 -0.1063
    1WF      WF64143  23.581  12.859   7.470 -0.2253  0.1508  0.0772
    1WF      WF64144   0.573  18.326   7.464 -0.1640 -0.2415  0.0317
    1WF      WF64145   4.969  22.372   8.378  0.0741 -0.0092  0.0557
    1WF      WF64146  21.695  26.766   8.906 -0.1530  0.1961  0.0834
    1WF      WF64147   4.769  25.504   7.944 -0.0558  0.1691  0.1729
    1WF      WF64148  23.321   7.756   0.730  0.1259  0.1959  0.0673
    1WF      WF64149   7.715  27.313   7.018 -0.1337  0.1363  0.2799
    1WF      WF64150  20.732  27.163   0.103 -0.3261  0.1979  0.1142
    1WF      WF64151  27.968  14.293   1.553  0.3541 -0.1436 -0.0541
    1WF      WF64152  24.092   2.566   3.052 -0.1239  0.1579  0.0454
    1WF      WF64153  28.655   6.087   0.401  0.0045 -0.0874  0.1032
    1WF      WF64154  13.644  10.950   8.932  0.1835  0.3534 -0.2932
    1WF      WF64155   5.430  11.126   6.199  0.0929 -0.1786 -0.0122
    1WF      WF64156   1.785  20.147   7.146 -0.1659  0.0784  0.0132
    1WF      WF64157  21.437   2.870   1.116 -0.0626 -0.1629 -0.0594
    1WF      WF64158  20.941  19.866   2.801  0.0791  0.0103 -0.1332
    1WF      WF64159  13.636  17.807   8.697 -0.0250 -0.0271  0.2266
    1WF      WF64160   3.938   3.009   0.606 -0.0916 -0.1139 -0.0074
    1WF      WF64161  12.618  15.887   0.038 -0.1492  0.3123  0.1337
    1WF      WF64162  15.040  27.199   9.267  0.0079 -0.1933 -0.0536
    1WF      WF64163   4.300   1.871   8.930 -0.1290  0.0817  0.0866
    1WF      WF64164  10.570  26.526   8.598 -0.1696 -0.0832 -0.0982
    1WF      WF64165  14.359  11.633   8.752  0.0539 -0.4312 -0.0179
    1WF      WF64166  11.932  20.402   8.249 -0.0384  0.1329  0.0916
    1WF      WF64167  10.601  24.248   2.684 -0.1824 -0.3162  0.0854
    1WF      WF64168   2.444   3.125   8.305 -0.0799  0.2359  0.3298
    1WF      WF64169   3.935  14.308   8.559  0.0471 -0.2410 -0.0570
    1WF      WF64170   7.532  18.951   0.298 -0.1767  0.1644  0.0071
    1WF      WF64171  22.188   7.922   8.224  0.0489  0.0065  0.3207
    1WF      WF64172   4.213   4.098   9.077 -0.0463  0.1332 -0.1683
    1WF      WF64173  23.377  27.064   9.514  0.1419  0.1531 -0.1250
    1WF      WF64174  14.111  17.250   0.333  0.0658  0.1984 -0.0140
    1WF      WF64175  11.332   2.713   1.391 -0.3701 -0.0915  0.1600
    1WF      WF64176  22.356  17.846   0.505  0.0214  0.1105  0.1397
    1WF      WF64177  17.820  27.206   0.235  0.1206  0.1822 -0.0981
    1WF      WF64178  23.820  14.217   0.315 -0.2396  0.0050  0.0892
    1WF      WF64179   5.253  27.974   9.216  0.0136 -0.0970 -0.0466
    1WF      WF64180  29.311   9.620   7.154  0.0988  0.0429 -0.0663
    1WF      WF64181  26.104   5.431   9.437  0.2607 -0.0925 -0.1853
    1WF      WF64182  26.276  19.451   1.105  0.2391  0.2799  0.0079
    1WF      WF64183  20.141   9.192   0.304 -0.2803  0.4218 -0.1284
    1WF      WF64184  11.332  27.698   1.557 -0.1217 -0.1117  0.0027
    1WF      WF64185  20.025  13.913   1.752 -0.0905 -0.0972 -0.0926
    1WF      WF64186  19.507  19.566   8.047  0.0119 -0.1025 -0.2221
    1WF      WF64187   0.083   8.267   8.813  0.0730 -0.0177 -0.0249
    1WF      WF64188   7.512  17.129   1.451  0.0579 -0.0257 -0.0832
    1WF      WF64189   2.417  11.054   6.588 -0.0410 -0.0439  0.4562
    1WF      WF64190   8.668  11.574   2.427  0.2073  0.0042  0.2787
    1WF      WF64191  14.306  28.151   7.746  0.2002 -0.1139 -0.0882
    1WF      WF64192  19.629  18.301   1.472 -0.1363 -0.2068  0.1934
    1WF      WF64193  26.254  23.163   1.997 -0.1442  0.1179 -0.0961
    1WF      WF64194   0.798  18.917   0.684 -0.1847  0.0437  0.0968
    1WF      WF64195   8.439  11.694   7.901  0.0234 -0.2114  0.0848
    1WF      WF64196   7.980  13.187   8.617  0.0385 -0.0863  0.2783
    1WF      WF64197  13.222  18.774   0.742 -0.0347  0.0385 -0.2677
    1WF      WF64198  17.159   6.720   1.702 -0.0159 -0.2106  0.1601
    1WF      WF64199   4.524  21.101   7.283 -0.1495  0.2079 -0.0767
    1WF      WF64200   8.269   5.605   8.729 -0.1429  0.2286 -0.1235
    1WF      WF64201  22.114  10.816   3.230  0.0016 -0.4328 -0.0183
    1WF      WF64202  10.505  23.888   0.347  0.2126 -0.0148 -0.0210
    1WF      WF64203  26.563  26.151   7.907  0.0998 -0.2793 -0.2514
    1WF      WF64204  27.346  11.301   7.985  0.3939 -0.1655  0.0892
    1WF      WF64205   8.555  21.433   7.261  0.2154 -0.1071 -0.2248
    1WF      WF64206  14.816  13.639   0.719  0.0703 -0.4703 -0.0193
    1WF      WF64207   4.699  16.990   1.239  0.1484 -0.3563  0.3798
    1WF      WF64208   8.736  26.059   9.182 -0.0206  0.0533  0.0416
    1WF      WF64209  17.430  26.493   8.590 -0.3886  0.0139 -0.1614
    1WF      WF64210   7.195  23.874   7.068  0.1815 -0.0919  0.0097
    1WF      WF64211   1.534   0.883   5.619  0.0410 -0.5864  0.4313
    1WF      WF64212   4.425  24.851   9.258 -0.1297 -0.1143  0.0952
    1WF      WF64213  22.094   1.235   0.387  0.2821  0.0684  0.0583
    1WF      WF64214   6.497  20.436   2.158 -0.0072  0.1635  0.2562
    1WF      WF64215  17.375  17.185   9.253 -0.2449  0.0673 -0.1894
    1WF      WF64216  28.872  21.022   0.926 -0.2699 -0.1939  0.0474
    1WF      WF64217  28.648   6.498   1.188  0.0508  0.0586 -0.0330
    1WF      WF64218  13.495  21.291   8.673  0.2962 -0.0919  0.0840
    1WF      WF64219  28.679  16.885   7.462  0.2073 -0.1002 -0.1269
    1WF      WF64220   9.122  17.545   0.991  0.0309  0.2864 -0.0206
    1WF      WF64221  11.350  17.312   9.237  0.0287  0.2652 -0.1730
    1WF      WF64222   9.266   6.108   2.982  0.2613  0.0877 -0.2497
    1WF      WF64223   6.984  17.364   8.225  0.1579  0.0524 -0.0163
    1WF      WF64224   7.075  13.279   7.608 -0.1433  0.1537  0.0544
    1WF      WF64225  23.331  10.192   1.758  0.2968 -0.0511 -0.0328
    1WF      WF64226   0.571  16.591   7.232  0.2424 -0.1857  0.0545
    1WF      WF64227  23.988  16.301   1.337 -0.2158  0.0163 -0.0035
    1WF      WF64228   7.945   4.716   2.319  0.2539 -0.0588  0.0002
    1WF      WF64229  21.299  13.985   0.146 -0.1594  0.1807  0.0200
    1WF      WF64230  17.185  17.713   0.385 -0.1340 -0.0882 -0.2008
    1WF      WF64231  19.062  29.113   0.560 -0.1426 -0.0562 -0.0239
    1WF      WF64232   5.246   2.494   0.198  0.0108 -0.3275  0.0616
    1WF      WF64233   6.809  10.180   1.574 -0.3491 -0.0863  0.2228
    1WF      WF64234   5.230   4.195   0.457  0.0736  0.0576  0.0736
    1WF      WF64235   2.157  28.049   0.133  0.1067 -0.2520  0.0808
    1WF      WF64236  28.944  18.438   0.224 -0.0126 -0.1154 -0.0294
    1WF      WF64237  26.663  12.122   9.124  0.1913  0.2642 -0.1111
    1WF      WF64238  11.199  23.303   8.740 -0.2306 -0.0748  0.1567
    1WF      WF64239   2.828   9.971   7.170 -0.0400 -0.0557 -0.1035
    1WF      WF64240   7.199  27.046   1.013 -0.2757 -0.4697  0.0119
    1WF      WF64241  14.998   3.327   3.076 -0.1941  0.0771  0.0841
    1WF      WF64242   3.089  10.247   8.134 -0.0049  0.0087 -0.0481
    1WF      WF64243  24.887  20.213   0.712 -0.0737 -0.0406  0.1807
    1WF      WF64244   5.524  14.915   0.364  0.3204  0.0815  0.4111
    1WF      WF64245  25.614  20.041   8.021 -0.1529 -0.1831 -0.2148
    1WF      WF64246   2.565  23.984   0.106 -0.0214 -0.0980 -0.1821
    1WF      WF64247   7.644  10.885   0.506  0.1583  0.0491 -0.0575
    1WF      WF64248  14.112   9.185   1.933 -0.1074  0.2868  0.0798
    1WF      WF64249  25.683  28.453   8.482  0.1843 -0.0736  0.0973
    1WF      WF64250   2.745  16.062   8.841 -0.0369 -0.0761  0.1618
    1WF      WF64251  19.718  10.758   0.255  0.2913 -0.0032  0.2227
    1WF      WF64252  21.696  20.359   3.013  0.0353 -0.1869 -0.0233
    1WF      WF64253  26.212  10.235   0.272 -0.1237 -0.1748 -0.1636
    1WF      WF64254  25.312  21.837   7.730  0.0269  0.0001 -0.3626
    1WF      WF64255  10.389  24.358   7.470  0.3550  0.0295 -0.0895
    1WF      WF64256   4.303   4.656   9.297  0.1123  0.3056  0.0781
    1WF      WF64257   1.653   9.672   0.505 -0.0962  0.0098 -0.2602
    1WF      WF64258   6.560   1.487   1.750  0.0096  0.2804  0.0129
    1WF      WF64259  15.442  15.459   1.025 -0.0043 -0.0815 -0.2547
    1WF      WF64260  28.612   9.091   9.214 -0.2287  0.1476  0.3657
    1WF      WF64261   0.011   8.851   7.615 -0.0348 -0.2232 -0.1868
    1WF      WF64262  23.107  15.528   8.307 -0.2505  0.1287 -0.2306
    1WF      WF64263  17.406   5.265   1.105  0.0128 -0.0108 -0.1585
    1WF      WF64264  12.099  25.109   0.588  0.3893 -0.1567 -0.1480
    1WF      WF64265  24.346  21.441   8.741 -0.0381  0.1428 -0.0143
    1WF      WF64266  25.133   5.638   0.582  0.0167  0.0146  0.0278
    1WF      WF64267   7.516   1.162   9.524  0.1524 -0.0302  0.1927
    1WF      WF64268   1.278  13.477   0.874 -0.1139  0.1345 -0.0792
    1WF      WF64269   7.576   6.413   1.028 -0.2745  0.1327  0.4307
    1WF      WF64270  23.410  12.567   7.826 -0.0348 -0.0241 -0.2847
    1WF      WF64271  11.585  18.218   0.334  0.0203  0.0682 -0.0966
    1WF      WF64272   6.826   0.245   8.188  0.0207 -0.0681 -0.0621
    1WF      WF64273  14.463  12.257   8.489  0.1570  0.1794 -0.1518
    1WF      WF64274  17.631  15.554   9.598 -0.1129  0.1857 -0.1068
    1WF      WF64275  28.938   2.535   0.583  0.4546 -0.0733  0.0401
    1WF      WF64276   8.645   7.674   1.241  0.0816 -0.4311 -0.0223
    1WF      WF64277   5.480  15.943   0.509 -0.2046 -0.1547 -0.0215
    1WF      WF64278  21.904   3.287   1.205 -0.0622 -0.1770  0.0241
    1WF      WF64279  14.542  24.578   1.103  0.0561  0.0619  0.0391
    1WF      WF64280   3.407   9.072   0.239  0.1215  0.1565 -0.3550
    1WF      WF64281  27.186  15.547   1.213  0.1017 -0.0729 -0.1438
    1WF      WF64282   4.999  21.297   8.752  0.0258 -0.2121 -0.2094
    1WF      WF64283  19.088   7.681   6.917 -0.1375  0.0599  0.0635
    1WF      WF64284  24.955   5.857   1.073 -0.1477  0.0329  0.0538
    1WF      WF64285   8.912   3.083   9.648  0.0087 -0.2138  0.0504
    1WF      WF64286  10.434   3.624   0.335  0.1546 -0.0059  0.0370
    1WF      WF64287  17.347  19.425   1.866 -0.1689 -0.0691  0.1920
    1WF      WF64288  28.934   4.054   2.706  0.0171  0.0019  0.1962
    1WF      WF64289  14.992   7.187   1.249 -0.0465  0.1100 -0.2759
    1WF      WF64290  13.144  11.837   1.352  0.0881  0.0752 -0.2117
    1WF      WF64291  13.817  28.994   0.847 -0.2234  0.0294 -0.1685
    1WF      WF64292  12.979   1.302   1.878 -0.1753  0.0585  0.1832
    1WF      WF64293  23.334  10.870   6.925 -0.0023  0.1451  0.3610
    1WF      WF64294   8.269  18.989   1.143  0.0440 -0.0522 -0.1002
    1WF      WF64295  23.292  10.675   7.380  0.3206 -0.1052 -0.1359
    1WF      WF64296  26.638  20.217   7.792 -0.3165  0.1818  0.1763
    1WF      WF64297  20.758  26.641   8.734  0.4755  0.1075 -0.0026
    1WF      WF64298  27.103   1.157   6.182  0.1089 -0.2525 -0.3667
    1WF      WF64299  13.698  25.848   2.358  0.1865 -0.1135 -0.3034
    1WF      WF64300   4.044  10.101   8.908  0.1492  0.0600 -0.0404
    1WF      WF64301  12.111  20.546   1.743  0.1238 -0.1919 -0.0817
    1WF      WF64302   4.818  17.836   7.356 -0.0834 -0.0290  0.1402
    1WF      WF64303  23.025  24.023   0.402 -0.0296 -0.1357 -0.1364
    1WF      WF64304  29.142  15.038   7.581  0.0254  0.1611 -0.1957
    1WF      WF64305  12.785  16.335   8.466 -0.2093  0.0234  0.2648
    1WF      WF64306  28.389   4.260   9.377 -0.0646 -0.1732  0.0572
    1WF      WF64307   9.704  19.725   8.060  0.0394 -0.3569 -0.0524
    1WF      WF64308  15.246   1.667   1.486  0.4367  0.0371 -0.1857
    1WF      WF64309   2.659   4.602   9.322  0.0326 -0.1342  0.4093
    1WF      WF64310  13.520  19.656   1.287  0.3148  0.0563  0.0429
    1WF      WF64311  14.100   3.288   9.343 -0.0778 -0.2510 -0.0363
    1WF      WF64312  14.287   6.582   0.633 -0.1051  0.0611  0.1485
    1WF      WF64313   3.690  11.583   8.370 -0.0320 -0.0437 -0.0353
    1WF      WF64314   6.326  10.224   1.580 -0.2805  0.2925 -0.0090
    1WF      WF64315  11.225  26.362   0.791 -0.0064  0.0586 -0.0693
    1WF      WF64316   6.901  25.776   9.197 -0.0250  0.0644  0.1910
    1WF      WF64317  23.857   8.738   0.824  0.1025  0.1216  0.0922
    1WF      WF64318   4.731  11.753   7.818  0.0891  0.1703 -0.2844
    1WF      WF64319  27.248  16.439   9.202  0.0561  0.0097 -0.0642
    1WF      WF64320  11.715   4.585   1.594 -0.1769  0.0708  0.2546
    1WF      WF64321  28.868  19.939   8.623  0.2716  0.1802 -0.3310
    1WF      WF64322   0.389  22.507   0.549 -0.0740 -0.0823  0.0937
    1WF      WF64323  15.744  22.267   0.950 -0.4469  0.1267 -0.0836
    1WF      WF64324  19.352   4.188   9.631  0.2063  0.1024  0.1825
    1WF      WF64325   3.887  11.924   0.040  0.1772  0.1840 -0.3084
    1WF      WF64326  11.593  25.840   8.800 -0.0770 -0.0439 -0.1624
    1WF      WF64327   6.712   4.090   7.011 -0.2023 -0.2110  0.1078
    1WF      WF64328  15.354   4.274   0.190  0.0143 -0.1745  0.0662
    1WF      WF64329   7.058  28.989   9.142 -0.1832 -0.2191  0.2661
    1WF      WF64330  19.538  28.036   9.379 -0.0066 -0.0296 -0.0802
    1WF      WF64331  18.720  27.630   7.166 -0.2392 -0.1330  0.0820
    1WF      WF64332  19.450   5.847   0.097 -0.3282 -0.1986  0.0884
    1WF      WF64333  28.734  14.019   0.398 -0.1840 -0.0422  0.3596
    1WF      WF64334   7.541   0.489   6.656  0.4281 -0.0738  0.1362
    1WF      WF64335  21.727  14.012   7.177  0.0531  0.0768 -0.0371
    1WF      WF64336  25.464  15.694   8.419 -0.3090  0.0828 -0.0242
    1WF      WF64337  12.149  18.684   0.457 -0.0236  0.1112  0.0767
    1WF      WF64338  27.697  26.533   0.210  0.1025 -0.4072 -0.1731
    1WF      WF64339   1.192  19.941   0.361 -0.0260 -0.1758  0.2634
    1WF      WF64340  27.318  15.966   8.951  0.2134  0.3180 -0.1763
    1WF      WF64341  11.368  16.453   9.527  0.2435 -0.0229 -0.0728
    1WF      WF64342  22.188  25.822   8.953 -0.0290  0.0989  0.0250
    1WF      WF64343  16.863  26.309   1.664  0.1244 -0.0509 -0.4528
    1WF      WF64344  11.324   8.961   2.150  0.0440 -0.1822  0.1247
    1WF      WF64345  25.602  29.117   0.253 -0.5440  0.0200 -0.1105
    1WF      WF64346  23.156  17.593   9.120 -0.1155 -0.1475  0.3150
    1WF      WF64347  21.763   4.735   9.533  0.0148  0.0045  0.3131
    1WF      WF64348   5.864  23.993   5.783 -0.2164 -0.0013 -0.0953
    1WF      WF64349  27.795  11.807   8.356 -0.0267  0.2554 -0.1230
    1WF      WF64350  19.293  12.998   2.478  0.0251  0.1080 -0.2247
    1WF      WF64351  10.233  28.811   2.022  0.0597  0.2691  0.1151
    1WF      WF64352  15.622  22.874   9.659 -0.1893  0.0541  0.3986
    1WF      WF64353  25.643   5.032   1.090  0.0378 -0.2352  0.1557
    1WF      WF64354  25.453  10.180   9.364 -0.1524  0.0647  0.0204
    1WF      WF64355  14.067  13.569   7.989  0.0206  0.1170 -0.1293
    1WF      WF64356   0.044  17.369   9.653  0.0997  0.1989 -0.0785
    1WF      WF64357   1.726  23.284   8.573  0.3096  0.0190  0.0743
    1WF      WF64358  22.785  11.807   8.493 -0.0193  0.0611 -0.1383
    1WF      WF64359  18.638  16.430   1.390  0.2446  0.3062  0.4270
    1WF      WF64360  23.201   7.670   0.218 -0.0919  0.2203 -0.0019
    1WF      WF64361  21.269  11.167   2.029 -0.0557  0.0180  0.0031
    1WF      WF64362   8.072   5.092   8.782 -0.1155  0.0113  0.0180
    1WF      WF64363  21.886   6.164   1.444  0.1632 -0.2826 -0.2520
    1WF      WF64364  27.011   8.951   1.485 -0.2477  0.1801  0.0965
    1WF      WF64365   9.559  10.533   9.388  0.1852  0.1768 -0.2248
    1WF      WF64366   9.005   7.536   0.800  0.0187 -0.1121  0.0285
    1WF      WF64367  27.249  12.233   7.130 -0.2449 -0.3214 -0.1774
    1WF      WF64368   3.786  16.297   9.502  0.2468  0.0065  0.0414
    1WF      WF64369  26.538  14.487   8.084 -0.0435 -0.1267 -0.1017
    1WF      WF64370  16.881  20.669   8.263 -0.2931  0.1065 -0.0914
    1WF      WF64371   8.712   4.398   8.460 -0.2242 -0.1429 -0.3151
    1WF      WF64372   6.458   1.987   1.908  0.1148  0.1570  0.1095
    1WF      WF64373  22.331   8.869   9.112 -0.0088  0.0362  0.0413
    1WF      WF64374  18.134  17.810   9.112  0.1934 -0.0132  0.3654
    1WF      WF64375   6.266  22.273   7.654  0.1384 -0.0073  0.0028
    1WF      WF64376  21.060  13.988   1.110  0.0421 -0.1839 -0.1326
    1WF      WF64377   0.928  26.332   0.806 -0.0210  0.2353  0.0794
    1WF      WF64378  24.099  19.850   1.067  0.1268  0.0969  0.3586
    1WF      WF64379  28.990  14.533   9.328  0.0522  0.3203 -0.1827
    1WF      WF64380  25.732   7.794   8.091 -0.1575  0.3600  0.1785
    1WF      WF64381   1.211  16.919   0.487  0.0245 -0.1368 -0.1303
    1WF      WF64382  10.758  24.140   8.527 -0.3080 -0.0532 -0.4759
    1WF      WF64383  28.551  23.448   0.147 -0.0131  0.3367  0.2947
    1WF      WF64384   5.928  12.079   1.508  0.0691 -0.0444  0.2458
    1WF      WF64385   6.685  20.759   9.186 -0.1124  0.4193 -0.0080
    1WF      WF64386   8.574   0.194   0.849  0.1007  0.1349  0.3924
    1WF      WF64387   8.331  20.934   7.242  0.0765 -0.0643 -0.0712
    1WF      WF64388   5.819   4.834   6.647 -0.1084 -0.0997  0.1281
    1WF      WF64389  24.482  15.002   0.190  0.0138  0.0337  0.1787
    1WF      WF64390   3.782  20.581   8.361  0.3449  0.4255 -0.0164
    1WF      WF64391  16.935  29.047   0.103 -0.0505  0.1322  0.3268
    1WF      WF64392  13.578  11.327   9.215 -0.2425  0.0047 -0.0875
    1WF      WF64393  17.772  17.629   9.433 -0.0575 -0.0623  0.1111
    1WF      WF64394  13.057  23.593   9.384  0.0827 -0.1783  0.0556
    1WF      WF64395  22.110   0.295   1.001  0.1062 -0.1783 -0.0912
    1WF      WF64396   7.609   7.994   1.148 -0.2145 -0.1554 -0.0799
    1WF      WF64397   0.830   8.270   5.700 -0.3461 -0.2929  0.0469
    1WF      WF64398  14.488  13.610   9.141 -0.0394 -0.2989  0.2450
    1WF      WF64399  15.199   2.182   1.606 -0.0095  0.0795 -0.0708
    1WF      WF64400   9.855  22.027   8.278  0.2134  0.0858 -0.1177
    1WF      WF64401  23.038  21.395   2.633 -0.2023  0.3161  0.1916
    1WF      WF64402   2.532   6.429   7.435  0.0642 -0.1713  0.1911
    1WF      WF64403  10.793   3.945   9.655  0.0625  0.0096 -0.0654
    1WF      WF64404   1.268  26.540   0.502  0.0223 -0.0576 -0.1105
    1WF      WF64405  24.468  16.825   8.135 -0.0829  0.1382 -0.2570
    1WF      WF64406  23.606  13.709   7.989 -0.0435 -0.2539 -0.0947
    1WF      WF64407  28.967  16.783   2.180  0.2120  0.1348 -0.0710
    1WF      WF64408  25.242   1.699   8.388  0.0518 -0.1087  0.0271
    1WF      WF64409  26.236   9.174   8.610  0.0328  0.1582  0.0703
    1WF      WF64410  22.211  26.320   9.459  0.1809 -0.0204  0.2691
    1WF      WF64411  23.689  12.913   8.870 -0.2591 -0.1391  0.1670
    1WF      WF64412   4.022  10.750   3.156  0.3063 -0.0187  0.0251
    1WF      WF64413   1.043  16.171   8.332  0.0545  0.2085  0.1958
    1WF      WF64414   1.968  11.800   0.347  0.2107 -0.0009 -0.0318
    1WF      WF64415  20.922  24.571   8.293 -0.0289  0.0391 -0.5201
    1WF      WF64416  20.709  26.984   9.198  0.3489  0.1136  0.0947
    1WF      WF64417  29.199  26.054   0.401  0.0482  0.1796  0.0160
    1WF      WF64418   0.399  26.079   8.978 -0.1107  0.2188  0.1410
    1WF      WF64419  12.256   9.765   2.496  0.0662  0.0187 -0.0846
    1WF      WF64420   2.447  22.061   7.955  0.0148 -0.0032  0.1099
    1WF      WF64421   1.568  16.230   8.642  0.2025 -0.1778  0.1054
    1WF      WF64422   6.484   3.683   1.271 -0.0756 -0.0453 -0.1257
    1WF      WF64423  17.508   4.326   2.357 -0.0038  0.1458  0.0350
    1WF      WF64424  18.532   5.091   1.251  0.0500  0.0149  0.1045
    1WF      WF64425  24.798  23.369   8.183 -0.0641  0.0632  0.1317
    1WF      WF64426   6.099   1.701   1.852  0.1174  0.3815  0.0545
    1WF      WF64427  10.015  17.083   0.517 -0.1405  0.1642 -0.2337
    1WF      WF64428  25.509  28.995   7.711 -0.0803 -0.0713  0.1411
    1WF      WF64429  27.398  23.437   2.001 -0.0934 -0.1688  0.1431
    1WF      WF64430  19.347  15.317   9.573 -0.1732  0.0446 -0.1246
    1WF      WF64431  13.609  15.323   8.960  0.1316  0.2318 -0.2749
    1WF      WF64432  26.435  17.151   9.518 -0.1842 -0.0522  0.0616
    1WF      WF64433   3.727  22.847   1.542  0.0826  0.0641  0.0314
    1WF      WF64434   1.171   3.453   8.543  0.1905 -0.3226 -0.0593
    1WF      WF64435   2.933   0.097   8.582  0.0906 -0.0386 -0.1797
    1WF      WF64436  28.348   2.711   0.742  0.0308 -0.0979 -0.1299
    1WF      WF64437  11.160   8.063   9.059  0.1419 -0.0492 -0.1235
    1WF      WF64438  12.227  19.432   7.318  0.1530  0.0446  0.0050
    1WF      WF64439  16.265  25.909   8.720 -0.3037 -0.0519 -0.1348
    1WF      WF64440   6.423  24.980   0.945  0.0379 -0.1877  0.0056
    1WF      WF64441  12.385  28.015   8.558 -0.0160  0.1364 -0.1630
    1WF      WF64442  27.157  26.680   1.035  0.3396  0.1262 -0.1703
    1WF      WF64443  12.705  23.092   1.819  0.1177 -0.0252  0.0878
    1WF      WF64444  14.010  29.303   2.270 -0.1661 -0.3116 -0.2194
    1WF      WF64445  19.188  14.167   0.543  0.1228  0.2956 -0.1530
    1WF      WF64446   2.998  26.372   2.641  0.0557  0.2638 -0.1788
    1WF      WF64447   0.487  23.580   1.915  0.1498 -0.0740 -0.3522
    1WF      WF64448   2.586  23.887   2.396  0.0489  0.0865 -0.1141
    1WF      WF64449   1.165   8.359   8.606  0.0467 -0.0059  0.1724
    1WF      WF64450   1.772  10.258   6.661 -0.1614 -0.0606 -0.2211
    1WF      WF64451  12.135   3.233   2.532 -0.1227  0.1847 -0.2500
    1WF      WF64452   1.060  27.611   8.729 -0.1430  0.1224 -0.0164
    1WF      WF64453  19.548  15.279   0.347  0.0032 -0.1452 -0.0709
    1WF      WF64454  23.418   2.755   0.133  0.0402  0.2236  0.1870
    1WF      WF64455   0.925  17.328   0.317  0.2220 -0.1465  0.0702
    1WF      WF64456  25.359  28.882   8.265  0.0815  0.1600 -0.0104
    1WF      WF64457   1.397   1.395   0.528 -0.2026 -0.1788 -0.1886
    1WF      WF64458  25.272  21.108   9.659  0.0668  0.3941  0.0656
    1WF      WF64459   1.293   7.256   0.079 -0.2072 -0.2548 -0.0935
    1WF      WF64460  14.711  15.863   0.310 -0.0432  0.0136  0.4310
    1WF      WF64461  20.955  16.867   9.537 -0.2020 -0.1317 -0.0656
    1WF      WF64462  13.840   0.716   9.135  0.1327  0.0966  0.1429
    1WF      WF64463  16.158  10.530   1.021 -0.0779 -0.1869  0.1875
    1WF      WF64464  13.982   7.989   7.956 -0.0806 -0.1652  0.2290
    1WF      WF64465  18.735  13.155   7.616  0.0813 -0.3944 -0.0569
    1WF      WF64466  10.016  20.013   8.371  0.1321 -0.0605 -0.1288
    1WF      WF64467  11.494   6.847   0.523 -0.2226  0.2177 -0.0406
    1WF      WF64468   9.333  18.681   0.555  0.2844 -0.3117 -0.0111
    1WF      WF64469   7.544   2.435   0.855 -0.0731 -0.1771  0.1857
    1WF      WF64470  29.183  13.464   0.853 -0.0706  0.0185  0.1389
    1WF      WF64471  28.346  24.830   2.366 -0.1771 -0.2414  0.0575
    1WF      WF64472   3.542  15.104   8.916  0.1144  0.0506  0.0897
    1WF      WF64473  18.352   4.228   1.611 -0.0972 -0.0488 -0.2775
    1WF      WF64474  10.939  24.467   2.310  0.0545  0.0084 -0.0858
    1WF      WF64475   9.151   0.140   9.183  0.1422 -0.2447  0.1300
    1WF      WF64476   1.539  21.966   8.451  0.2087 -0.0060  0.2559
    1WF      WF64477  19.071   5.150   3.144  0.2140 -0.1092  0.0554
    1WF      WF64478   6.621   5.339   0.717 -0.0312  0.1937  0.0855
    1WF      WF64479  25.699  12.361   9.321 -0.1318  0.0788 -0.1317
    1WF      WF64480  19.210  22.641   0.229 -0.3659  0.0264 -0.2308
    1WF      WF64481  16.784   3.144   8.423 -0.0204  0.1682 -0.2046
    1WF      WF64482   4.946   0.474   8.197  0.1697  0.2528  0.0218
    1WF      WF64483  16.123  15.293   0.477  0.3479 -0.2298 -0.0242
    1WF      WF64484  28.678   4.452   7.094  0.0314 -0.2074 -0.0460
    1WF      WF64485  28.274  17.185   2.950  0.1668 -0.2776 -0.0380
    1WF      WF64486  18.682  10.151   0.258 -0.1629  0.0013 -0.0643
    1WF      WF64487  26.153  25.425   0.698  0.1342 -0.1135 -0.2845
    1WF      WF64488  24.018   3.740   6.926 -0.2069 -0.3420  0.3497
    1WF      WF64489  23.108  27.629   0.097  0.3357  0.0527  0.3411
    1WF      WF64490   4.779  16.741   9.316  0.2126 -0.0998 -0.1972
    1WF      WF64491   2.992   5.224   8.815  0.2279 -0.0918  0.2047
    1WF      WF64492   0.434  22.904   2.075  0.2664 -0.5129  0.2420
    1WF      WF64493  23.314  23.323   7.745  0.1017  0.0007  0.0980
    1WF      WF64494   9.637  12.455   0.273  0.2543 -0.1933 -0.1487
    1WF      WF64495  13.747  17.195   7.502 -0.0001 -0.0153 -0.0427
    1WF      WF64496  15.826  18.276   0.468  0.0444 -0.0263 -0.5662
    1WF      WF64497   3.387  17.932   7.592 -0.1330  0.0655 -0.2303
    1WF      WF64498   1.992  11.514   2.663 -0.1736 -0.2195  0.3867
    1WF      WF64499  23.781  10.496   7.326  0.1702 -0.0469  0.3429
    1WF      WF64500  18.499   4.661   8.426  0.0753  0.1010  0.2181
    1WF      WF64501   6.597  12.433   7.508 -0.2331 -0.1150  0.0205
    1WF      WF64502  12.665   1.924   8.591  0.0056  0.2245  0.3189
    1WF      WF64503  11.001  17.391   8.176 -0.0812  0.0347 -0.1283
    1WF      WF64504  23.171  26.220   0.658 -0.1870 -0.1220  0.1757
    1WF      WF64505   5.654  11.970   0.559 -0.3391  0.1550  0.0789
    1WF      WF64506  19.690  17.915   0.199  0.2060 -0.1886 -0.3205
    1WF      WF64507   0.084  19.826   9.447  0.3564 -0.0931  0.0365
    1WF      WF64508   7.101  10.094   3.414 -0.0808  0.1015 -0.1933
    1WF      WF64509  11.185  18.038   0.598 -0.0525  0.1287 -0.0269
    1WF      WF64510  24.249  21.763   9.164 -0.3001 -0.2643  0.0565
    1WF      WF64511  10.420   8.961   9.375 -0.0241 -0.0416  0.3230
    1WF      WF64512  28.651  25.498   0.130  0.1329  0.0069 -0.0281
    1WF      WF64513   5.960  22.123   8.736 -0.0387 -0.0144  0.0282
    1WF      WF64514   0.730  14.389   8.374 -0.0099  0.3263 -0.1315
    1WF      WF64515  15.056   9.580   7.290 -0.2361  0.1237  0.4489
    1WF      WF64516  11.376   1.274   9.176 -0.0265 -0.0962  0.1265
    1WF      WF64517   6.490  16.080   8.154  0.1490 -0.2180  0.0171
    1WF      WF64518  23.380   7.762   7.185  0.0222  0.1061 -0.2115
    1WF      WF64519  17.130   9.497   1.478  0.0246 -0.1908 -0.1734
    1WF      WF64520   6.361  12.325   8.655 -0.1520 -0.2107 -0.0833
    1WF      WF64521  28.013   8.682   6.029  0.1904  0.1211 -0.1499
    1WF      WF64522   5.642  21.592   1.977  0.1675 -0.1655  0.1646
    1WF      WF64523  12.582   7.572   9.300 -0.0945 -0.2586  0.0427
    1WF      WF64524  26.853  28.211   1.277 -0.1409 -0.0208  0.0294
    1WF      WF64525   9.901  15.333   0.414  0.3280  0.1045  0.2052
    1WF      WF64526  24.624  21.460   8.276  0.0077 -0.0187 -0.1071
    1WF      WF64527  23.093   3.465   8.366 -0.0444  0.1452 -0.0301
    1WF      WF64528  17.035   2.378   1.242 -0.0539 -0.2343  0.0173
    1WF      WF64529   0.233  19.921   0.213 -0.0372  0.0248 -0.1257
    1WF      WF64530   9.196  14.598   0.776  0.1677 -0.2160  0.0374
    1WF      WF64531  20.719  28.831   0.651 -0.2740 -0.0069  0.0994
    1WF      WF64532  24.682  26.820   1.402  0.1570  0.2037  0.0147
    1WF      WF64533   0.927  14.218   8.901 -0.2744  0.1341 -0.2019
    1WF      WF64534  27.221   3.721   7.864  0.0643  0.0842  0.3263
    1WF      WF64535  17.217   9.729   9.568 -0.0132  0.3434 -0.1227
    1WF      WF64536   4.571   5.049   1.564  0.0685  0.2642  0.0674
    1WF      WF64537  27.311  13.994   0.525 -0.1180 -0.2664 -0.3985
    1WF      WF64538   5.839  15.229   8.413  0.0444 -0.1552 -0.1830
    1WF      WF64539   8.816  29.029   8.959 -0.0585  0.0548 -0.0856
    1WF      WF64540  26.491   1.388   0.020  0.0193  0.2215  0.3015
    1WF      WF64541   1.279  14.070   9.234  0.0031 -0.0271  0.0240
    1WF      WF64542  19.718   5.355   0.146  0.1627 -0.5351  0.2289
    1WF      WF64543  10.808  26.606   0.984  0.0828 -0.2198 -0.4064
    1WF      WF64544  24.316  27.568   7.505 -0.3588  0.2539  0.0973
    1WF      WF64545  20.749  13.801   8.522 -0.2298  0.1442 -0.0105
    1WF      WF64546   1.740   7.302   8.483  0.0875 -0.0811  0.0661
    1WF      WF64547  17.938   3.359   1.672 -0.1298 -0.0167  0.2090
    1WF      WF64548   2.616   5.315   1.075  0.0925 -0.4165  0.2200
    1WF      WF64549  15.232  26.223   1.268 -0.1961 -0.1705  0.1287
    1WF      WF64550  18.699  21.021   1.260  0.1210 -0.0993 -0.4121
    1WF      WF64551   6.651  12.933   8.590  0.3415 -0.3790  0.3979
    1WF      WF64552   6.389  17.900   8.176 -0.2953  0.1952  0.0561
    1WF      WF64553   0.440  19.955   0.880  0.1168 -0.1405 -0.2643
    1WF      WF64554  26.561   7.576   0.992 -0.0606  0.0873  0.2376
    1WF      WF64555  21.573   4.896   9.061 -0.1468  0.2003  0.0490
    1WF      WF64556  21.212   9.019   1.245 -0.0506 -0.3086 -0.2190
    1WF      WF64557  21.979  24.478   0.857 -0.3359 -0.4532  0.2852
    1WF      WF64558  10.461  19.091   9.041 -0.0076  0.1101  0.4007
    1WF      WF64559   2.056  12.905   9.666  0.0198 -0.1284 -0.2066
    1WF      WF64560  24.074  15.772   6.911  0.1275 -0.0129 -0.0856
    1WF      WF64561  14.732   3.850   9.526 -0.1185 -0.1512 -0.0997
    1WF      WF64562  22.478  29.206   7.482  0.1160  0.0612 -0.1898
    1WF      WF64563  27.049  18.333   2.752  0.0653  0.1779  0.0200
    1WF      WF64564   9.161   5.731   0.528 -0.1448 -0.1220  0.2749
    1WF      WF64565   1.139  11.723   1.727  0.1686 -0.1319 -0.0572
    1WF      WF64566   2.246   1.673   2.584  0.0809  0.3720 -0.0966
    1WF      WF64567  23.313  14.740   5.725 -0.4537  0.0264  0.4661
    1WF      WF64568  23.918  25.968   0.218 -0.1413 -0.0665 -0.0267
    1WF      WF64569  24.201   9.807   9.166  0.0293 -0.2067 -0.0121
    1WF      WF64570   1.947  18.449   0.577 -0.2141 -0.0104  0.0758
    1WF      WF64571   4.713  15.233   8.381  0.3408 -0.1734  0.0233
    1WF      WF64572  15.122  13.032   7.011 -0.2252  0.1224 -0.0718
    1WF      WF64573  23.027  21.971   2.548 -0.0119 -0.1437  0.4208
    1WF      WF64574  17.234  23.291   9.190 -0.1594  0.1958  0.3560
    1WF      WF64575  26.563   1.365   7.986  0.2675 -0.0103 -0.0114
    1WF      WF64576   2.900   3.700   0.997 -0.0511  0.0272  0.2431
    1WF      WF64577   4.795  28.749   7.354 -0.0604 -0.0189  0.2192
    1WF      WF64578  18.717  20.445   8.776 -0.1851 -0.1519 -0.1086
    1WF      WF64579   4.556  16.881   8.367  0.0025 -0.0464 -0.0304
    1WF      WF64580  21.579   5.807   1.214  0.2473 -0.2033 -0.2853
    1WF      WF64581  21.445  18.606   9.128 -0.3938 -0.1315 -0.1873
    1WF      WF64582   4.155   4.225   8.261 -0.1192  0.1056 -0.1605
    1WF      WF64583   3.648  16.377   0.357  0.0088  0.2056  0.0562
    1WF      WF64584  26.126  20.065   8.061 -0.0818 -0.0747  0.0038
    1WF      WF64585  16.742   2.306   1.759 -0.0940 -0.0074  0.3732
    1WF      WF64586  15.558  12.804   8.385 -0.2801 -0.3552 -0.2856
    1WF      WF64587  17.798   8.907   7.873 -0.2125 -0.1806  0.3141
    1WF      WF64588  20.944  27.355   8.973  0.0982  0.3894  0.0230
    1WF      WF64589  26.169   0.544   1.459 -0.1808 -0.2197  0.1981
    1WF      WF64590   5.705  21.798   8.496  0.0038 -0.1749  0.0695
    1WF      WF64591  12.853  28.367   8.585 -0.2358 -0.2099  0.1387
    1WF      WF64592  13.153   2.546   0.918  0.1593 -0.1333  0.0822
    1WF      WF64593  19.276  21.548   7.694  0.2684  0.1490 -0.0907
    1WF      WF64594  13.565   2.779   0.839  0.2296  0.0129 -0.0555
    1WF      WF64595  22.724  24.621   3.479 -0.1098 -0.0119 -0.0693
    1WF      WF64596  12.628  22.571   9.500 -0.2212 -0.1731  0.0296
    1WF      WF64597   1.370   5.263   5.454  0.1250 -0.0911 -0.1624
    1WF      WF64598  18.986  24.743   9.388  0.0431 -0.2504 -0.0297
    1WF      WF64599  28.104   5.391   0.280 -0.0946 -0.0027  0.1886
    1WF      WF64600  12.032   2.544   3.526  0.2231  0.2317 -0.1428
    1WF      WF64601  17.625   5.009   3.583  0.3183 -0.2170 -0.1171
    1WF      WF64602  25.627  24.950   2.329 -0.0770 -0.0567 -0.1854
    1WF      WF64603  13.409  25.479   1.386  0.0902 -0.0290 -0.1982
    1WF      WF64604   0.642  10.364   2.285  0.0985  0.1785 -0.4484
    1WF      WF64605   2.915   0.841   9.321 -0.1233  0.0557 -0.3840
    1WF      WF64606  16.975  13.210   0.125  0.1293 -0.1323 -0.2337
    1WF      WF64607  10.564  24.642   8.560  0.2832  0.0949  0.0528
    1WF      WF64608  24.485  24.050   8.678  0.0213  0.1841 -0.0199
    1WF      WF64609   2.250  28.836   9.238  0.1060  0.0719  0.3560
    1WF      WF64610  15.060   0.266   2.248  0.2880 -0.0150 -0.2339
    1WF      WF64611   9.185  28.849   3.772  0.0416  0.1405 -0.1835
    1WF      WF64612  21.888  18.762   0.930  0.0589  0.2438 -0.0807
    1WF      WF64613  21.963   3.458   6.611 -0.2042 -0.0558 -0.1116
    1WF      WF64614   9.361  17.042   8.659  0.0901  0.1543 -0.2286
    1WF      WF64615   1.224   1.691   6.875  0.0339 -0.3452  0.0794
    1WF      WF64616  25.091  24.271   0.929  0.2020  0.1608 -0.1520
    1WF      WF64617   2.140   4.587   9.079 -0.0818 -0.0639 -0.1822
    1WF      WF64618   1.747   6.825   8.460 -0.2163 -0.0882  0.0747
    1WF      WF64619   5.817   5.646   0.449 -0.1664  0.2006  0.0773
    1WF      WF64620  20.190  11.694   0.408  0.3120  0.0353 -0.1024
    1WF      WF64621   3.221  20.490   1.620 -0.2341  0.0030  0.0431
    1WF      WF64622  21.613   7.957   7.117 -0.0906  0.3319  0.0664
    1WF      WF64623  17.837  11.543   1.020  0.0748 -0.4089  0.2144
    1WF      WF64624   0.759  20.128   6.590  0.1398  0.0995 -0.1412
    1WF      WF64625  15.385  22.958   9.194 -0.1174  0.1017  0.0250
    1WF      WF64626  21.977  26.732   9.313 -0.2109 -0.0997  0.1927
    1WF      WF64627  22.959   6.921   7.958 -0.0440  0.0264 -0.0455
    1WF      WF64628  13.916  23.175   7.767  0.1469  0.1709  0.0699
    1WF      WF64629  23.002  22.315   0.875 -0.0987 -0.0104  0.2399
    1WF      WF64630  25.232   8.634   6.148 -0.1759  0.3099 -0.0812
    1WF      WF64631  21.016  26.215   1.271 -0.3381 -0.3070 -0.1302
    1WF      WF64632  28.396  23.324   9.319 -0.0938  0.2283  0.0108
    1WF      WF64633  15.035  27.389   2.657 -0.1874 -0.0431 -0.1514
    1WF      WF64634  14.545   6.235   0.874  0.0184 -0.5798 -0.0050
    1WF      WF64635   2.228  10.680   0.856  0.1811  0.1163  0.0268
    1WF      WF64636  24.933  14.299   7.553  0.1217  0.2291  0.1106
    1WF      WF64637  17.304  15.372   0.487  0.0144  0.3256  0.0548
    1WF      WF64638  21.473  27.673   0.877  0.2445  0.3165 -0.0056
    1WF      WF64639  14.477  13.184   1.047  0.1643  0.1864  0.0155
    1WF      WF64640   8.803   7.218   9.519 -0.0620 -0.2884 -0.0348
    1WF      WF64641   9.476   5.587   2.886 -0.0949  0.0304 -0.2630
    1WF      WF64642  27.367  16.586   0.654 -0.0603  0.1097 -0.0431
    1WF      WF64643   7.203  12.885   0.212  0.2131  0.1218  0.0121
    1WF      WF64644   2.550  12.776   0.066 -0.1753  0.0106 -0.0926
    1WF      WF64645   2.693  17.188   9.600  0.3840  0.0690 -0.1724
    1WF      WF64646   9.379   9.689   7.715 -0.1548  0.0216 -0.1901
    1WF      WF64647  20.004  12.029   7.937  0.0564 -0.0963  0.0831
    1WF      WF64648  24.048   2.535   2.533  0.0752 -0.2890 -0.2135
    1WF      WF64649  15.525   5.301   8.387 -0.0757 -0.0923 -0.1950
    1WF      WF64650   9.093  17.797   1.523  0.2384 -0.0124 -0.0495
    1WF      WF64651   8.607   7.304   9.072  0.3090 -0.2076 -0.0306
    1WF      WF64652  22.343   6.374   1.566  0.0253 -0.0778 -0.1018
    1WF      WF64653  21.505  17.662   3.022 -0.1604 -0.0627  0.2280
    1WF      WF64654   8.254  12.869   8.900 -0.0108  0.2893 -0.0274
    1WF      WF64655  13.759   0.051   1.760  0.0070 -0.3131 -0.1511
    1WF      WF64656   9.178  22.732   0.915  0.0008  0.0669  0.0175
    1WF      WF64657   7.584  24.698   8.007  0.3900  0.0280 -0.3059
    1WF      WF64658  12.056  25.289   8.351  0.0249  0.0739  0.4911
    1WF      WF64659  20.076  18.902   0.130  0.2205 -0.2143  0.2480
    1WF      WF64660   9.402  20.087   7.887 -0.0239 -0.1094 -0.1141
    1WF      WF64661  15.125  18.428   2.463 -0.2702 -0.0498 -0.0545
    1WF      WF64662  24.928  25.342   6.259 -0.0560  0.1148  0.0599
    1WF      WF64663   3.867   0.706   8.613  0.1680 -0.2755  0.0189
    1WF      WF64664   6.681  13.448   8.587 -0.2470 -0.4519 -0.0912
    1WF      WF64665  19.938   2.831   0.550  0.4027  0.2091  0.0670
    1WF      WF64666  27.802  28.036   7.080 -0.2474  0.3582  0.3809
    1WF      WF64667  12.798  10.307   1.623  0.0021  0.0285  0.2428
    1WF      WF64668  23.152  16.233   9.071  0.1745  0.1445 -0.0154
    1WF      WF64669  17.236  18.078   1.441  0.2865 -0.3605 -0.2534
    1WF      WF64670  18.765  22.025   7.098 -0.1792  0.2908 -0.1873
    1WF      WF64671  10.032  28.318   8.867 -0.0502 -0.0062  0.2852
    1WF      WF64672  15.264   9.819   2.246 -0.0782  0.1201 -0.1192
    1WF      WF64673  16.061  19.451   0.408 -0.0535  0.1731  0.0462
    1WF      WF64674  23.188  17.164   9.278  0.0163  0.0418  0.0439
    1WF      WF64675  12.279   0.413   1.412  0.2139 -0.1407  0.3022
    1WF      WF64676   5.095  26.369   9.590  0.1486  0.1731 -0.0707
    1WF      WF64677  13.789  16.655   7.549  0.2901 -0.0306  0.0570
    1WF      WF64678  24.435  14.243   7.579  0.0418 -0.3727 -0.0544
    1WF      WF64679  20.575   0.785   7.851  0.0713 -0.0261  0.2298
    1WF      WF64680  10.990   7.580   1.532  0.0253  0.2807  0.3316
    1WF      WF64681  12.908   1.784   4.339  0.2253  0.0436  0.0520
    1WF      WF64682  25.439   7.460   7.877 -0.0680 -0.3196 -0.2756
    1WF      WF64683   5.073  26.380   7.372 -0.2279  0.4098 -0.1045
    1WF      WF64684  20.112   5.923   2.456 -0.1610 -0.1657  0.0268
    1WF      WF64685  18.816  19.458   0.902 -0.0064  0.0739 -0.1163
    1WF      WF64686  15.388   0.068   1.834 -0.1215 -0.0033  0.1348
    1WF      WF64687   4.164  20.216   8.196  0.0163  0.1034 -0.0186
    1WF      WF64688  27.696  23.125   7.274 -0.2901 -0.0750  0.0855
    1WF      WF64689  28.235   6.283   1.483  0.2290  0.0199 -0.1591
    1WF      WF64690   4.777  23.106   5.603  0.0904 -0.0353 -0.0241
    1WF      WF64691   7.174   1.367   8.735 -0.0150 -0.1236  0.0911
    1WF      WF64692   7.668  13.028   8.992 -0.1172 -0.3822  0.1758
    1WF      WF64693   6.074   1.151   9.135  0.0618  0.0096  0.0683
    1WF      WF64694  17.124   5.058   8.299  0.3081  0.1348  0.3150
    1WF      WF64695  22.200  19.678   9.395  0.4174 -0.1118 -0.0501
    1WF      WF64696  17.020  21.292   1.442  0.1118 -0.1099  0.1816
    1WF      WF64697  25.765  25.807   8.070  0.1278 -0.0073  0.0292
    1WF      WF64698   7.786  14.002   2.854 -0.3147 -0.1584 -0.0294
    1WF      WF64699  11.677   2.612   9.500  0.0623 -0.0150  0.0206
    1WF      WF64700   2.504  13.637   8.469  0.0573  0.0097 -0.0054
    1WF      WF64701  22.312  22.885   8.675  0.0936 -0.3366 -0.0311
    1WF      WF64702   4.475  13.747   7.968 -0.0222 -0.0047 -0.0807
    1WF      WF64703   6.944  11.573   9.367 -0.1075  0.1749  0.2481
    1WF      WF64704   2.901  10.552   7.839 -0.1198  0.1395 -0.2278
    1WF      WF64705   7.914   0.649   1.046 -0.0258  0.1924 -0.0402
    1WF      WF64706  28.205   5.881   0.494 -0.2138  0.1632  0.2329
    1WF      WF64707   0.516  23.948   7.338 -0.0581 -0.0781  0.0703
    1WF      WF64708  26.332  25.206   0.286 -0.0053  0.2921  0.1853
    1WF      WF64709  21.094  22.654   9.461  0.1268 -0.0894  0.0808
    1WF      WF64710  15.893  16.892   2.842  0.0181 -0.2151 -0.1266
    1WF      WF64711  19.649  11.999   8.301 -0.1259  0.1009  0.1204
    1WF      WF64712   1.173   1.003   7.425 -0.3189  0.0167  0.4660
    1WF      WF64713  10.537  28.519   0.431  0.2836 -0.2381  0.0208
    1WF      WF64714  19.732  12.204   8.814  0.2257  0.0389  0.0419
    1WF      WF64715   2.147  19.745   7.217 -0.1611 -0.0122 -0.1770
    1WF      WF64716  20.853  24.126   1.709  0.0730 -0.0251 -0.0944
    1WF      WF64717   5.364  26.643   9.208  0.2471 -0.0626 -0.2298
    1WF      WF64718  28.456  21.654   2.149 -0.0294  0.0113  0.1122
    1WF      WF64719  22.348   2.809   0.077  0.0753  0.1292 -0.1699
    1WF      WF64720  26.661   0.616   1.711  0.2102 -0.1404  0.0129
    1WF      WF64721   1.229   0.850   0.369 -0.2479 -0.2986  0.3289
    1WF      WF64722  19.554  26.476   0.794  0.2412  0.1961 -0.2698
    1WF      WF64723  19.125  21.457   1.695 -0.0618  0.1509 -0.0732
    1WF      WF64724  10.234  26.419   8.925  0.0382 -0.0198 -0.0874
    1WF      WF64725   4.770   6.375   7.350 -0.0261  0.1444 -0.1302
    1WF      WF64726   1.853   8.233   0.477 -0.1794 -0.1330 -0.0697
    1WF      WF64727  21.782   6.407   0.278 -0.1170 -0.0337 -0.1570
    1WF      WF64728  11.222  28.083   0.798  0.2394 -0.1242 -0.1794
    1WF      WF64729  24.758  24.004   0.655  0.1031  0.0115 -0.0723
    1WF      WF64730   4.453  17.252   9.322  0.0709 -0.1057 -0.2459
    1WF      WF64731  11.810   0.250   1.502  0.1504  0.0720 -0.4622
    1WF      WF64732   1.652   3.482   8.806  0.3435 -0.0736  0.0946
    1WF      WF64733   4.828   1.834   8.844 -0.2773  0.1617  0.3110
    1WF      WF64734   3.327  12.550   7.893 -0.1686  0.1057 -0.1284
    1WF      WF64735   3.318  20.269   2.052  0.1317  0.1964  0.1916
    1WF      WF64736  19.732  23.078   9.046  0.0924 -0.0193  0.2608
    1WF      WF64737  26.665  17.501   0.519 -0.0556  0.1733  0.1373
    1WF      WF64738  24.751  24.034   0.118 -0.0711 -0.0273  0.1469
    1WF      WF64739   8.226  15.492   8.406 -0.0555 -0.1430 -0.0142
    1WF      WF64740   5.807  23.482   8.870  0.2323 -0.0524  0.3264
    1WF      WF64741  24.318  22.457   1.507 -0.0822  0.2010  0.3448
    1WF      WF64742  13.972   1.150   8.746  0.0480  0.0994  0.0368
    1WF      WF64743   5.104  10.631   1.273  0.3009 -0.4059 -0.2742
    1WF      WF64744  12.348   2.486   3.119 -0.0919 -0.0581 -0.0582
    1WF      WF64745  27.076  19.060   8.441 -0.0514  0.2370 -0.3775
    1WF      WF64746   8.383  21.746   9.032 -0.1244 -0.6049 -0.2447
    1WF      WF64747  23.964  18.843   9.280 -0.0369 -0.1858 -0.0915
    1WF      WF64748  18.129  16.367   0.031  0.0807 -0.0201  0.1089
    1WF      WF64749  23.818  29.129   8.144 -0.1522 -0.0482  0.1344
    1WF      WF64750  23.598   1.747   0.961  0.0047  0.1863 -0.1857
    1WF      WF64751   4.504  20.750   6.149  0.0624 -0.1343 -0.2670
    1WF      WF64752   7.146  13.763   1.239 -0.0691 -0.0906  0.0914
    1WF      WF64753   7.351  16.455   0.719 -0.1214 -0.1139 -0.0974
    1WF      WF64754  10.204  20.290   1.481 -0.0042  0.0871  0.2859
    1WF      WF64755  13.603  26.748   2.571  0.1134  0.2827  0.0357
    1WF      WF64756  26.888  14.904   7.233 -0.1819  0.2896 -0.1748
    1WF      WF64757   1.752   7.246   0.350 -0.2334 -0.0171  0.3003
    1WF      WF64758  17.695   0.236   9.368 -0.3101 -0.2815 -0.1208
    1WF      WF64759   4.073   2.603   1.032  0.0961  0.0473 -0.0244
    1WF      WF64760  21.997  19.031   1.378 -0.1656 -0.0757  0.1556
    1WF      WF64761  13.749  25.446   9.594 -0.1634  0.1045 -0.1883
    1WF      WF64762   8.896  26.235   0.341 -0.0503 -0.0300  0.0658
    1WF      WF64763  19.713  11.307   1.261 -0.2419  0.2210  0.0142
    1WF      WF64764   8.854  13.731   0.529  0.1014  0.0982 -0.2352
    1WF      WF64765   9.541   0.987   2.206 -0.0220  0.2473 -0.0255
    1WF      WF64766   4.971   1.293   1.896 -0.1682 -0.0352 -0.0829
    1WF      WF64767  13.205  26.571   2.003 -0.2357  0.2164 -0.1161
    1WF      WF64768   0.092   2.125   7.967  0.1298  0.0196  0.3651
    1WF      WF64769  11.070  23.283   3.168 -0.1897 -0.1475 -0.2128
    1WF      WF64770   4.163   8.117   9.585 -0.1595  0.1132 -0.1483
    1WF      WF64771  21.971  22.511   1.062 -0.1878  0.0245  0.0925
    1WF      WF64772  24.512  13.810   7.804  0.0044  0.2345  0.0102
    1WF      WF64773  13.935  20.032   8.876 -0.3568 -0.1803 -0.2856
    1WF      WF64774  22.457  22.544   8.949 -0.0418 -0.0125 -0.2184
    1WF      WF64775   2.525  19.011   0.276  0.1238 -0.3805  0.2488
    1WF      WF64776  13.302  12.155   0.958  0.1143  0.2213  0.0346
    1WF      WF64777   4.017   3.269   0.210 -0.0836  0.0640  0.0564
    1WF      WF64778  18.802   1.688   1.047 -0.0606  0.1639 -0.0429
    1WF      WF64779  13.967  23.889   9.382 -0.1341  0.0773 -0.0605
    1WF      WF64780   7.148  28.463   7.639 -0.2742  0.1647 -0.0325
    1WF      WF64781   6.742  12.250   0.566 -0.0862 -0.3985  0.1715
    1WF      WF64782  13.137  22.337   0.331  0.1567 -0.1909  0.1209
    1WF      WF64783   6.091  10.514   0.271 -0.1059 -0.1833  0.1654
    1WF      WF64784   7.815   6.043   7.664 -0.2067 -0.4346 -0.0544
    1WF      WF64785  21.084  11.727   7.942 -0.1850 -0.0698 -0.5549
    1WF      WF64786   3.711  17.862   8.020  0.0010  0.1376  0.1935
    1WF      WF64787   9.511   5.525   1.330 -0.1993  0.0771 -0.3055
    1WF      WF64788  26.776   5.509   9.345 -0.2158  0.0010 -0.0987
    1WF      WF64789  24.775  17.094   8.473 -0.4120  0.0352 -0.1007
    1WF      WF64790  12.075   3.944   0.038  0.0486 -0.1275 -0.1960
    1WF      WF64791  25.960   7.618   5.972  0.3539 -0.3174 -0.2075
    1WF      WF64792  21.486  24.781   1.834  0.0077  0.0001 -0.2729
    1WF      WF64793  26.688  11.168   0.158  0.0249 -0.0859  0.1066
    1WF      WF64794  22.615  19.207   1.831 -0.1297  0.0403 -0.2102
    1WF      WF64795  13.926   5.006   9.129 -0.0337  0.0298  0.1685
    1WF      WF64796  11.633  22.932   7.275  0.0663  0.1121  0.1704
    1WF      WF64797   1.572   8.462   0.089 -0.0695  0.2383  0.1678
    1WF      WF64798   3.256   4.933   9.181  0.0551  0.0052  0.0432
    1WF      WF64799  28.404   1.179   9.483  0.3831 -0.1742  0.1780
    1WF      WF64800  17.637  27.464   1.455  0.1904 -0.0828  0.1804
    1WF      WF64801   0.894  29.327   0.765 -0.0948 -0.1034  0.1407
    1WF      WF64802  20.098  12.297   8.428  0.0817 -0.1786  0.0678
    1WF      WF64803   8.256  25.163   1.356 -0.0425 -0.3095 -0.1608
    1WF      WF64804   2.708   1.168   8.902  0.2279 -0.2089 -0.2326
    1WF      WF64805  15.345  24.643   3.375 -0.0175 -0.0862 -0.1816
    1WF      WF64806  18.856  11.621   9.161 -0.2314 -0.1151 -0.0606
    1WF      WF64807  27.094  28.476   1.604  0.3916  0.2853 -0.0219
    1WF      WF64808  22.152  15.309   7.141 -0.3337  0.0039 -0.0670
    1WF      WF64809  21.953  13.188   0.747  0.3584 -0.0902  0.0367
    1WF      WF64810   2.024  28.323   6.043  0.0439  0.0874  0.0763
    1WF      WF64811  20.972   4.472   6.241 -0.1421  0.1070 -0.1844
    1WF      WF64812   6.161  17.037   0.333  0.0257 -0.2260  0.3496
    1WF      WF64813   6.349  14.790   8.993  0.2360 -0.0555  0.2940
    1WF      WF64814  27.019   9.735   9.220 -0.0025 -0.3773  0.1086
    1WF      WF64815  17.519  11.394   0.659  0.3702  0.0846 -0.2704
    1WF      WF64816   4.967  25.938   7.683  0.1130  0.2590 -0.0428
    1WF      WF64817   9.469   0.504   9.349 -0.0636  0.2767  0.1331
    1WF      WF64818   5.163   4.222   1.590  0.3353 -0.2457  0.2690
    1WF      WF64819   7.276  18.214   8.123  0.1425  0.0717 -0.0402
    1WF      WF64820  23.970  16.358   8.695  0.1199 -0.1210  0.0405
    1WF      WF64821  26.343  27.321   0.606 -0.1372  0.0727  0.1045
    1WF      WF64822   4.990  19.496   0.749  0.2034  0.2716 -0.0919
    1WF      WF64823  20.130   6.415   0.498 -0.3790 -0.0585 -0.2002
    1WF      WF64824  26.410   1.059   1.642  0.2935  0.0312 -0.0040
    1WF      WF64825   3.588  14.327   8.912  0.3476 -0.0563 -0.1414
    1WF      WF64826  24.725   1.474   8.794  0.2305  0.0176  0.1448
    1WF      WF64827  18.144  27.472   1.460  0.1479 -0.0054  0.1314
    1WF      WF64828  14.593  23.142   9.658  0.0586  0.2452  0.0342
    1WF      WF64829   4.766   2.926   7.617 -0.2577 -0.2583  0.0706
    1WF      WF64830  19.695   7.853   9.449  0.1494 -0.2971  0.0270
    1WF      WF64831  28.260   4.119   1.108  0.0751 -0.2472  0.1176
    1WF      WF64832   6.870  17.833   8.224  0.2300  0.1357 -0.3110
    1WF      WF64833   3.378   1.946   1.994  0.1266 -0.1638 -0.0467
    1WF      WF64834  17.022   9.838   7.169  0.1175 -0.3118  0.2587
    1WF      WF64835  11.273  23.153   9.266 -0.1082  0.2906  0.0837
    1WF      WF64836  28.206  21.670   1.722 -0.0206  0.3489  0.1849
    1WF      WF64837  10.866  10.446   0.488  0.0296  0.0202  0.0727
    1WF      WF64838   7.212  10.532   6.672 -0.1346 -0.0194 -0.1566
    1WF      WF64839  26.938  15.357   1.836 -0.1268  0.1597  0.3029
    1WF      WF64840  24.633   9.233   8.573 -0.0459  0.0341 -0.5045
    1WF      WF64841   2.552  10.996   7.095 -0.1365 -0.2650  0.2634
    1WF      WF64842  16.805   2.063   0.945  0.2226 -0.1585  0.3576
    1WF      WF64843  10.267   6.866   2.997 -0.0006 -0.0708  0.1316
    1WF      WF64844   2.646  13.162   7.653 -0.0165  0.0853  0.4091
    1WF      WF64845   7.711  15.805   1.099  0.1765 -0.1765 -0.0864
    1WF      WF64846  15.754   2.082   8.356  0.3916 -0.0796  0.2093
    1WF      WF64847   3.709   8.846   6.297 -0.0657  0.3377  0.0623
    1WF      WF64848  24.296   3.438   1.825 -0.0642  0.2090  0.0818
    1WF      WF64849   7.666   0.893   0.234 -0.0017  0.0788  0.1994
    1WF      WF64850  13.847   8.668   9.675  0.1817 -0.1272  0.0886
    1WF      WF64851  12.994  11.983   9.586  0.0290 -0.3070 -0.1647
    1WF      WF64852   6.112  26.683   8.060  0.2670 -0.0406 -0.2273
    1WF      WF64853  24.500   3.764   2.174  0.2679 -0.0462  0.1967
    1WF      WF64854  17.556  15.034   7.753  0.0224  0.2889  0.0360
    1WF      WF64855   1.531   1.822   0.117 -0.2281 -0.0698 -0.0552
    1WF      WF64856  25.464  22.409   7.999 -0.1958  0.0696 -0.3299
    1WF      WF64857  29.301   1.409   1.392  0.0450  0.0615  0.4576
    1WF      WF64858  26.604  21.398   7.880 -0.0291 -0.1955 -0.3917
    1WF      WF64859   5.477  19.306   7.248 -0.1035  0.0238  0.0355
    1WF      WF64860  25.948   0.087   9.548  0.0760 -0.0252  0.0619
    1WF      WF64861  10.714   2.727   0.328  0.0805  0.0835  0.1536
    1WF      WF64862  19.422  27.795   8.898 -0.0984 -0.2735  0.1167
    1WF      WF64863   4.312  20.062   2.577 -0.2142  0.1053  0.0368
    1WF      WF64864  21.256  20.081   0.603  0.0188  0.2448 -0.2567
    1WF      WF64865  26.836  14.434   7.424 -0.0331 -0.0377 -0.0986
    1WF      WF64866  10.521  28.989   0.177  0.3053 -0.2530 -0.1016
    1WF      WF64867   1.911   5.285   0.869  0.0989 -0.1371 -0.1986
    1WF      WF64868   8.732  25.052   7.399 -0.0770  0.0654 -0.0607
    1WF      WF64869  24.213   3.604   7.391 -0.1008  0.1760  0.2445
    1WF      WF64870  26.277  19.037   7.931  0.0726  0.3764 -0.1151
    1WF      WF64871  27.525  19.665   0.143  0.0583  0.0401  0.0345
    1WF      WF64872  12.586  28.156   8.995 -0.2630 -0.1893 -0.0472
    1WF      WF64873  10.391   6.383   3.045  0.0957 -0.2700  0.0046
    1WF      WF64874  14.447  14.326   2.314 -0.2375  0.1182  0.2179
    1WF      WF64875   6.050  24.436   8.589  0.1543 -0.2558 -0.1426
    1WF      WF64876  17.206  14.160   2.029  0.1290 -0.0261  0.0561
    1WF      WF64877   0.801   7.648   8.557  0.2476 -0.0095  0.2794
    1WF      WF64878  26.067   8.044   6.996 -0.3268 -0.3931  0.4274
    1WF      WF64879  15.710   8.079   0.769 -0.0026 -0.1194  0.0019
    1WF      WF64880  16.746   2.570   0.824  0.0668 -0.0939  0.2654
    1WF      WF64881  14.020  28.884   2.536 -0.0739 -0.0538  0.2125
    1WF      WF64882   8.441   0.764   0.939  0.3984  0.2029 -0.2384
    1WF      WF64883   9.033   5.677   1.072 -0.0787 -0.4998  0.0174
    1WF      WF64884   4.690  15.274   8.908  0.0873 -0.0456  0.1852
    1WF      WF64885   7.010  27.841   1.652 -0.2134 -0.0657  0.0327
    1WF      WF64886  23.041   2.025   1.032  0.4149 -0.1240 -0.2854
    1WF      WF64887  15.930   1.876   8.759  0.0902 -0.3594 -0.0863
    1WF      WF64888   6.398  12.751   0.716 -0.1011  0.2138  0.0615
    1WF      WF64889   4.028  15.233   8.891  0.0465  0.3041 -0.3375
    1WF      WF64890  27.949  15.050   7.598 -0.2270  0.1419 -0.0005
    1WF      WF64891   9.002   2.374   2.307  0.2913  0.1248 -0.5095
    1WF      WF64892  26.181   7.796   7.834  0.1215 -0.0446 -0.2907
    1WF      WF64893  25.541   7.590   9.419 -0.3992  0.0484 -0.0329
    1WF      WF64894  27.637  20.220   1.909  0.1678 -0.0355 -0.1129
    1WF      WF64895  18.154   1.027   6.800 -0.0022 -0.0251 -0.1145
    1WF      WF64896   8.093   8.105   1.076 -0.1744 -0.3302 -0.2155
    1WF      WF64897   2.056  23.091   0.988 -0.0844  0.2185 -0.0709
    1WF      WF64898   5.026  27.358   6.962  0.0881 -0.1529 -0.3052
    1WF      WF64899   9.682  13.629   8.609  0.2838  0.1871  0.2240
    1WF      WF64900   8.886  21.982   8.960  0.1183 -0.0957 -0.2445
    1WF      WF64901  13.122  21.622   8.509 -0.2639 -0.0242  0.1016
    1WF      WF64902  21.842   1.521   7.141 -0.1739  0.0421  0.0532
    1WF      WF64903   2.651  16.548   8.796  0.3705  0.2018  0.2366
    1WF      WF64904   9.439   5.770   1.733  0.3289 -0.0831 -0.1677
    1WF      WF64905   2.497  26.036   0.095 -0.4089 -0.2544  0.0996
    1WF      WF64906  18.365  25.426   8.432  0.0990 -0.0333 -0.3032
    1WF      WF64907  13.272  24.521   2.385  0.1360 -0.0542 -0.0693
    1WF      WF64908  13.192  23.206   9.646  0.0226  0.1976  0.0302
    1WF      WF64909  15.987   5.444   8.211  0.0957  0.3528 -0.2594
    1WF      WF64910  20.194  12.153   8.966  0.1554  0.4722  0.2676
    1WF      WF64911  11.187  17.965   1.109  0.1435  0.0994 -0.1109
    1WF      WF64912   2.835  19.046   9.519  0.1274  0.0949 -0.1374
    1WF      WF64913  15.439  26.640   8.764 -0.2385 -0.2755  0.2813
    1WF      WF64914  19.127  21.236   1.231 -0.2390 -0.0102 -0.1112
    1WF      WF64915   3.809   3.800   9.218 -0.4263  0.0737 -0.1524
    1WF      WF64916   5.752  12.026   1.931 -0.2724  0.3275  0.0311
    1WF      WF64917   0.711   4.646   1.318 -0.2393  0.0492  0.0058
    1WF      WF64918   5.658   7.212   7.688 -0.2764  0.1455  0.0754
    1WF      WF64919  16.580  10.256   1.225  0.1712  0.2450 -0.0157
    1WF      WF64920  18.488  26.177   1.109 -0.1490  0.0326  0.0639
    1WF      WF64921   1.431  28.884   7.763  0.2116 -0.0945  0.1575
    1WF      WF64922   1.370  28.734   0.102 -0.1163 -0.2049 -0.0915
    1WF      WF64923  13.710  24.210   8.139  0.2162 -0.0873  0.0379
    1WF      WF64924   5.689   6.787   0.309 -0.0043  0.1992 -0.2976
    1WF      WF64925  16.837   2.928   6.390 -0.0374  0.0170 -0.3212
    1WF      WF64926  13.603  10.345   0.905 -0.2050  0.2789 -0.3025
    1WF      WF64927  26.520  17.498   7.470 -0.0065 -0.0077  0.2676
    1WF      WF64928   9.973  24.932   7.151 -0.0414  0.1963 -0.1759
    1WF      WF64929  17.172  10.255   9.678  0.3355 -0.0517  0.2218
    1WF      WF64930  20.098   6.690   2.054  0.0949 -0.0928  0.1777
    1WF      WF64931   6.464  10.933   0.152 -0.1172 -0.0546 -0.2543
    1WF      WF64932  16.685  13.157   9.406 -0.1526 -0.0241 -0.2000
    1WF      WF64933  20.934  15.352   8.862  0.0741  0.0292  0.0343
    1WF      WF64934   8.107   3.666   2.994  0.0342 -0.1281  0.0718
    1WF      WF64935   4.184  18.690   0.820  0.0891 -0.1385 -0.2038
    1WF      WF64936   7.075  12.901   1.828 -0.1172 -0.1805  0.1500
    1WF      WF64937  24.386  10.246   9.474 -0.0738  0.5340 -0.1600
    1WF      WF64938  16.279  27.903   7.655 -0.1116 -0.3296  0.0119
    1WF      WF64939  22.713   8.887   8.234 -0.0349  0.1478 -0.1120
    1WF      WF64940  22.208  16.875   8.302  0.0630 -0.1703  0.2352
    1WF      WF64941  13.180  20.071   1.317 -0.0833 -0.0681  0.1068
    1WF      WF64942  27.646   5.116   0.412 -0.0044  0.2963 -0.0626
    1WF      WF64943  22.397  26.796   9.622  0.4216 -0.2766 -0.0947
    1WF      WF64944   3.385  21.260   0.996  0.1193 -0.0625  0.2715
    1WF      WF64945  15.449  26.394   0.803 -0.0556 -0.0752  0.1672
    1WF      WF64946   0.928   0.562   9.253 -0.0781 -0.0859  0.0522
    1WF      WF64947  14.579  18.683   7.570 -0.2874  0.0915 -0.1185
    1WF      WF64948  28.653   6.767   8.447 -0.0323 -0.2389 -0.1744
    1WF      WF64949  23.606   2.665   2.223  0.1033  0.0115 -0.1684
    1WF      WF64950   7.043  11.820   1.651  0.1994  0.0420  0.2819
    1WF      WF64951  21.019  21.879   0.459  0.0909 -0.1428 -0.4581
    1WF      WF64952   4.139  27.672   9.495  0.1650  0.1881 -0.0054
    1WF      WF64953   5.602   8.751   8.973 -0.0687  0.1317 -0.0983
    1WF      WF64954  20.736   3.339   0.244  0.2860  0.3086  0.2227
    1WF      WF64955  20.887   7.688   0.739 -0.1086 -0.1309  0.0004
    1WF      WF64956  13.801  19.736   9.643 -0.1213 -0.1544 -0.1135
    1WF      WF64957  20.018  26.044   8.581  0.1772  0.2346 -0.2008
    1WF      WF64958  18.260  16.472   0.939  0.3705 -0.2690 -0.0558
    1WF      WF64959  13.342  28.800   0.740  0.2956  0.0720  0.1248
    1WF      WF64960  21.896  16.632   8.655  0.1263  0.3776  0.1100
    1WF      WF64961   2.185  28.460   9.519  0.0632 -0.0474 -0.2301
    1WF      WF64962  17.015  15.962   7.505  0.1677 -0.1235 -0.0029
    1WF      WF64963  14.931  12.968   1.496  0.2744 -0.0245  0.0460
    1WF      WF64964  11.167   9.816   9.283  0.2523  0.2808  0.0135
    1WF      WF64965  25.019  24.255   7.964  0.3419 -0.0094  0.0030
    1WF      WF64966  16.276  17.513   7.004 -0.0252 -0.0937  0.3363
    1WF      WF64967  13.032  22.756   0.050 -0.1797  0.4128  0.1375
    1WF      WF64968  17.320  23.092   1.605 -0.1729 -0.1239  0.0628
    1WF      WF64969   3.939   7.797   8.544  0.1562  0.0207  0.0282
    1WF      WF64970   9.880  15.715   8.383 -0.2160 -0.0213 -0.0724
    1WF      WF64971  25.298  24.331   1.569 -0.0016  0.0889  0.2726
    1WF      WF64972  12.631   6.236   1.515 -0.3686 -0.1057 -0.0762
    1WF      WF64973   4.742   1.762   1.868  0.0741  0.1134  0.0782
    1WF      WF64974   8.183  20.598   9.520 -0.1206 -0.0018  0.1750
    1WF      WF64975  25.797   9.095   8.899 -0.0832 -0.0580 -0.2875
    1WF      WF64976  27.361  18.698   8.250 -0.1361  0.0090 -0.0569
    1WF      WF64977   6.708  23.050   8.859  0.0428 -0.1207  0.2746
    1WF      WF64978  13.865   1.856   6.924  0.3579 -0.2088  0.0160
    1WF      WF64979  13.576   5.174   0.714 -0.0933 -0.2224 -0.0786
    1WF      WF64980  18.829  26.533   1.367 -0.1045 -0.1048 -0.0476
    1WF      WF64981  20.884  20.331   0.391 -0.1577 -0.1909 -0.1495
    1WF      WF64982  18.941   4.352   0.184  0.0197 -0.1916 -0.1254
    1WF      WF64983  10.576   9.146   1.208 -0.0528  0.1437 -0.1423
    1WF      WF64984  17.291   5.527   2.503  0.1995  0.1231 -0.3360
    1WF      WF64985  19.366  24.335   2.853  0.1000 -0.0922 -0.0801
    1WF      WF64986  23.544  13.897   5.858 -0.0684  0.0027 -0.1286
    1WF      WF64987  14.114  25.124   9.302  0.0837 -0.0276  0.3508
    1WF      WF64988   4.575  14.838   1.234  0.1865 -0.0849  0.2592
    1WF      WF64989   1.674  16.164   0.624  0.0146  0.1747 -0.0001
    1WF      WF64990   1.882  28.859   9.585  0.0227  0.1017 -0.2088
    1WF      WF64991  28.713   8.525   0.548  0.3140 -0.4028 -0.1031
    1WF      WF64992   8.323  21.730   6.882  0.2752  0.1957  0.0722
    1WF      WF64993  24.160  18.646   9.645 -0.0274 -0.0227  0.2354
    1WF      WF64994   1.776  23.370   0.590 -0.3756  0.2721 -0.0592
    1WF      WF64995  21.491  14.323   7.991  0.0668  0.0769 -0.0461
    1WF      WF64996  29.255  25.110   8.708  0.3891  0.1185 -0.0942
    1WF      WF64997   3.351   8.585   0.160 -0.1541 -0.0871  0.1697
    1WF      WF64998  15.342   0.787   8.292  0.1771  0.1806  0.0194
    1WF      WF64999   5.091   8.876   8.296 -0.4077 -0.3137  0.0443
    1WF      WF65000  19.582  15.443   9.093  0.0895  0.1467 -0.0105
    1WF      WF65001   5.433   8.299   7.652  0.0570  0.0432  0.1056
    1WF      WF65002  24.341  15.474   1.377 -0.0551  0.2575  0.0427
    1WF      WF65003  19.611  24.285   6.187  0.3621 -0.0113  0.2212
    1WF      WF65004  19.839  17.821   0.662  0.3111  0.2034  0.1237
    1WF      WF65005  16.330  28.407   8.838  0.1566  0.0020 -0.1804
    1WF      WF65006  14.472   7.326   9.061  0.1230  0.1227 -0.0638
    1WF      WF65007   1.891   3.655   6.937 -0.1009 -0.1615 -0.2969
    1WF      WF65008  10.944   2.422   0.762  0.0433 -0.0531 -0.3192
    1WF      WF65009  15.944  26.375   8.580 -0.0445  0.1281 -0.1514
    1WF      WF65010   7.441   1.143   8.253  0.1023  0.2010 -0.1426
    1WF      WF65011  19.436  11.984   7.849  0.0003 -0.0741  0.1837
    1WF      WF65012  23.576  25.964   0.641 -0.2047  0.0762  0.1097
    1WF      WF65013  18.904  22.844   0.881  0.0357  0.0841 -0.3137
    1WF      WF65014   2.796  28.595   3.082  0.3321  0.0701 -0.3569
    1WF      WF65015  21.963   7.704   8.632  0.2086 -0.1018  0.2440
    1WF      WF65016   4.103   1.395   8.851 -0.2524 -0.0733  0.0135
    1WF      WF65017   6.601  27.384   2.775 -0.1285  0.2632 -0.0678
    1WF      WF65018   2.094  19.049   0.605 -0.3975 -0.1713  0.0269
    1WF      WF65019  17.789   6.921   9.520  0.0210 -0.2813 -0.4882
    1WF      WF65020   6.149  28.188   8.556 -0.0446 -0.1007  0.2215
    1WF      WF65021   0.653  25.847   0.711  0.1229  0.2586  0.0600
    1WF      WF65022   2.747  13.373   1.062 -0.1513  0.1357 -0.0605
    1WF      WF65023  19.920  27.220   8.284  0.1257  0.0706  0.2786
    1WF      WF65024  18.312   8.213   0.561 -0.0692 -0.2175  0.1407
    1WF      WF65025  24.864  23.078   7.154 -0.4404  0.1265  0.0116
    1WF      WF65026  25.310  28.879   2.696 -0.0401  0.0703  0.4081
    1WF      WF65027  21.084  26.522   0.853 -0.0964  0.0776  0.0681
    1WF      WF65028  18.602  11.925   8.903  0.0434  0.3173 -0.0419
    1WF      WF65029  28.943  14.138   7.359  0.0191  0.1157  0.1263
    1WF      WF65030   7.385  27.127   8.884 -0.1092 -0.1484  0.3312
    1WF      WF65031  21.227  26.894   8.772 -0.1849  0.0323 -0.0978
    1WF      WF65032  17.807  16.032   9.584  0.2314 -0.1468  0.0912
    1WF      WF65033  23.276  27.821   2.366 -0.4845  0.1640 -0.1943
    1WF      WF65034  11.697  28.010   1.593  0.0611 -0.1276 -0.1253
    1WF      WF65035  25.608  26.219   9.676  0.0589 -0.0707 -0.0599
    1WF      WF65036   9.496  20.363   0.679  0.1708 -0.0227  0.2959
    1WF      WF65037  21.889  14.052   8.853  0.0554 -0.0705  0.0501
    1WF      WF65038   7.034  24.919   7.840  0.1194  0.1429  0.1860
    1WF      WF65039   1.114  18.212   8.578 -0.0918  0.0087  0.2022
    1WF      WF65040   8.231   5.697   9.383 -0.3583 -0.0606 -0.1664
    1WF      WF65041  27.512  16.027   9.371 -0.4626  0.2346  0.1385
    1WF      WF65042  25.304  16.555   9.054 -0.1520 -0.3064 -0.0405
    1WF      WF65043   9.041   0.076   0.765  0.1012  0.1119  0.0666
    1WF      WF65044  25.259   2.885   8.176 -0.1719  0.3609  0.0891
    1WF      WF65045  11.768  22.101   2.697 -0.0699 -0.0993 -0.0776
    1WF      WF65046  18.251  14.084   9.051  0.0005  0.1619  0.1197
    1WF      WF65047  24.436   6.986   2.703  0.2611  0.1839 -0.1102
    1WF      WF65048  26.460  11.282   7.116 -0.0820 -0.0041 -0.0675
    1WF      WF65049   4.179  25.677   7.301  0.2034 -0.0358 -0.0202
    1WF      WF65050  25.781   2.935   1.423  0.1400  0.1448  0.0417
    1WF      WF65051  27.147  13.864   8.722  0.4137  0.0804  0.0556
    1WF      WF65052  20.666  24.328   1.303 -0.2711 -0.0119 -0.2154
    1WF      WF65053  18.348  25.036   3.416 -0.3468 -0.2271  0.1990
    1WF      WF65054  19.941  25.963   8.098  0.1987  0.4754 -0.0462
    1WF      WF65055  26.648  27.984   0.905 -0.1121 -0.2628  0.1293
    1WF      WF65056  28.212  28.475   0.954  0.1150  0.1613 -0.1097
    1WF      WF65057   6.042  24.934   8.446  0.1248  0.4595  0.1867
    1WF      WF65058  10.547  20.719   1.502 -0.1729  0.3233  0.2830
    1WF      WF65059  13.673   3.368   9.656  0.0033  0.0473 -0.3303
    1WF      WF65060  26.429  11.258   9.427 -0.5803  0.1918  0.3304
    1WF      WF65061   8.062  24.136   8.804  0.0183 -0.1333 -0.0567
    1WF      WF65062   9.310  18.384   0.007 -0.0759  0.0091 -0.0256
    1WF      WF65063   2.510   6.571   1.084  0.1771 -0.1869 -0.0967
    1WF      WF65064  21.954  20.159   7.082  0.1186  0.1559 -0.1531
    1WF      WF65065   4.396  16.820   7.853 -0.0423  0.2673 -0.3097
    1WF      WF65066  20.518   7.732   7.748 -0.0291  0.1185 -0.0747
    1WF      WF65067  14.192  27.892   1.493 -0.2259  0.1319  0.0020
    1WF      WF65068   8.457   5.327   9.138 -0.1474 -0.1875 -0.2681
    1WF      WF65069  25.509   2.474   1.358 -0.2324 -0.0627 -0.0370
    1WF      WF65070  14.000  21.213   9.654  0.0539  0.1053 -0.0446
    1WF      WF65071  17.488  22.560   7.969 -0.1607  0.1992  0.0776
    1WF      WF65072  10.859  11.407   1.505 -0.4398 -0.0470 -0.2051
    1WF      WF65073  10.027  25.725   3.127  0.1266  0.0719 -0.1684
    1WF      WF65074   7.436  26.187   0.336 -0.3675  0.0238 -0.2293
    1WF      WF65075   6.501  16.951   9.691  0.0491 -0.2929 -0.3506
    1WF      WF65076  21.501   2.381   1.352 -0.0860 -0.0081 -0.0190
    1WF      WF65077  10.487  11.552   7.365 -0.0162 -0.0148  0.1482
    1WF      WF65078  22.126  24.087   0.596 -0.0289  0.1467 -0.2066
    1WF      WF65079   6.965  11.574   1.245  0.0899 -0.2232  0.0690
    1WF      WF65080  26.566   1.556   2.862 -0.2006  0.1079  0.1932
    1WF      WF65081   0.830  14.076   1.301 -0.0468 -0.1424 -0.1143
    1WF      WF65082   3.957  25.279   7.053 -0.2285  0.3703 -0.2773
    1WF      WF65083   6.157  10.763   1.378  0.0450 -0.1600  0.3442
    1WF      WF65084  24.722  19.869   1.005 -0.1307  0.1484  0.0069
    1WF      WF65085  24.911  21.430   0.125  0.0239  0.1088  0.1580
    1WF      WF65086  25.616  16.023   2.614 -0.2571  0.1718  0.0173
    1WF      WF65087   5.754   2.836   0.330 -0.0429  0.4540  0.0968
    1WF      WF65088  14.152  10.909   0.554  0.2056  0.0706  0.0140
    1WF      WF65089  18.861  19.198   0.455  0.4086  0.1036 -0.4083
    1WF      WF65090  19.920  27.467   1.918 -0.1414 -0.2330 -0.3296
    1WF      WF65091  17.526   1.147   1.539 -0.1224  0.2773  0.0486
    1WF      WF65092  15.645  26.677   2.732 -0.2352 -0.0119  0.1795
    1WF      WF65093  13.758   6.428   8.604 -0.4412  0.1804 -0.5689
    1WF      WF65094  16.588   1.923   2.108 -0.0214  0.1390 -0.0504
    1WF      WF65095  29.193   2.406   8.263 -0.2041  0.1351  0.0163
    1WF      WF65096  18.640  28.925   1.303 -0.0801 -0.3443 -0.1297
    1WF      WF65097  25.713  16.378   1.614 -0.3373 -0.0386  0.2000
    1WF      WF65098   9.998  15.499   9.640  0.2707  0.0005 -0.1142
    1WF      WF65099   8.591  23.029   0.860 -0.0977 -0.0048  0.0786
    1WF      WF65100  15.359  10.055   0.807  0.1282  0.0257  0.2567
    1WF      WF65101  14.942  25.026   9.217  0.0196  0.2949 -0.0391
    1WF      WF65102  23.066   0.423   9.172 -0.5370 -0.3024  0.0623
    1WF      WF65103  15.614   8.677   2.226  0.3860  0.1761 -0.0392
    1WF      WF65104  17.545   4.496   2.822  0.2547  0.4122 -0.0043
    1WF      WF65105  12.792  26.974   1.238 -0.0751 -0.2151  0.0758
    1WF      WF65106  26.623  13.839   1.472 -0.2044  0.1614  0.0733
    1WF      WF65107   3.281  11.812   8.118 -0.0958 -0.1035 -0.3125
    1WF      WF65108   3.656  11.497   6.188  0.1058  0.3194 -0.2052
    1WF      WF65109  12.263  24.707   0.918  0.0557  0.1392 -0.0131
    1WF      WF65110   6.933  19.401   7.852 -0.0722  0.1144  0.1416
    1WF      WF65111  26.273  17.128   7.816  0.0423 -0.1932 -0.1668
    1WF      WF65112  19.434  24.628   8.615 -0.2308  0.1490 -0.0340
    1WF      WF65113   4.692  11.076   1.383  0.1426  0.0281 -0.0538
    1WF      WF65114  15.739   7.529   3.246  0.0664  0.0614  0.0824
    1WF      WF65115  19.925   2.959   2.211 -0.1650 -0.1497  0.1188
    1WF      WF65116  25.945  27.588   2.262 -0.1717 -0.0128 -0.1246
    1WF      WF65117   2.639   4.621   1.330  0.2528  0.0577  0.1635
    1WF      WF65118   0.252   0.926   1.561  0.5130  0.1343 -0.1296
    1WF      WF65119   3.901  25.899   6.387 -0.0572  0.0619 -0.0097
    1WF      WF65120  14.018  15.255   0.213  0.1520 -0.0748 -0.0922
    1WF      WF65121   3.007  12.932   8.012 -0.0409  0.1460 -0.4287
    1WF      WF65122  13.064   7.563   1.525 -0.0982 -0.0530  0.2552
    1WF      WF65123  27.664   1.428   2.869  0.0525 -0.4448  0.0598
    1WF      WF65124   5.798  14.600   0.091  0.0639  0.0607 -0.0498
    1WF      WF65125  26.531   7.448   7.666  0.0374  0.0505 -0.3234
    1WF      WF65126  20.101   8.717   0.207  0.1609 -0.2559 -0.2409
    1WF      WF65127  16.151  26.721   2.703 -0.0283 -0.0059  0.1840
    1WF      WF65128  18.746   3.318   6.849 -0.2425  0.0745 -0.2670
    1WF      WF65129   5.214   8.092   1.785  0.0883 -0.1067  0.0619
    1WF      WF65130  12.466   3.642   9.542 -0.1180  0.3456  0.0742
    1WF      WF65131   5.907  15.536   7.305 -0.1977  0.3621 -0.0602
    1WF      WF65132  16.684  11.396   9.492 -0.3764  0.2413  0.0618
    1WF      WF65133   5.134  23.164   6.982 -0.1485  0.0089  0.2213
    1WF      WF65134  28.143  24.699   7.679  0.0489 -0.0518  0.0196
    1WF      WF65135  29.024   1.909   2.941  0.0767 -0.0413  0.0581
    1WF      WF65136   7.169  13.232   8.914  0.1088  0.4137  0.3645
    1WF      WF65137  20.700   6.483   9.268  0.0544 -0.3254 -0.0084
    1WF      WF65138   8.813  22.694   0.581 -0.4108 -0.1358  0.1806
    1WF      WF65139  21.456  19.902   2.885  0.2341 -0.0549  0.0483
    1WF      WF65140  12.931   1.519   8.888 -0.0822  0.2200 -0.0841
    1WF      WF65141  20.212  26.155   1.701  0.2811 -0.1006  0.0575
    1WF      WF65142   3.277  27.202   2.551 -0.2262  0.1417  0.1313
    1WF      WF65143  20.718  11.438   8.585  0.2490 -0.1378  0.1627
    1WF      WF65144   2.477  18.669   0.622 -0.2262  0.0235 -0.0825
    1WF      WF65145  20.479  26.139   8.755 -0.0867  0.1857 -0.1666
    1WF      WF65146  21.968   7.408   9.028 -0.0076  0.2399  0.0650
    1WF      WF65147  24.287  26.451   8.671  0.3307  0.1063 -0.0403
    1WF      WF65148  10.890  16.370   9.409 -0.2278  0.3483 -0.1635
    1WF      WF65149   7.785  27.496   8.942  0.0845 -0.1345 -0.2205
    1WF      WF65150  17.334   7.018   0.303  0.0855 -0.0003 -0.2442
    1WF      WF65151  25.582   9.791   6.687 -0.0736 -0.3756 -0.3310
    1WF      WF65152   8.632  21.691   8.585  0.1291 -0.0182  0.2464
    1WF      WF65153  28.458   9.335   8.666  0.1162  0.1629 -0.0916
    1WF      WF65154  29.321  12.458   1.402  0.1259 -0.2934 -0.0422
    1WF      WF65155  10.077   3.509   1.199  0.0649 -0.1630 -0.0219
    1WF      WF65156   8.312  23.356   7.444 -0.2756  0.1970  0.3650
    1WF      WF65157   4.607  18.804   7.232 -0.1160  0.4763  0.2692
    1WF      WF65158  19.302  29.046   8.746 -0.2127 -0.0258 -0.2930
    1WF      WF65159   3.124  24.626   7.361  0.2117 -0.1641 -0.0520
    1WF      WF65160  17.585   8.487   7.877 -0.1901  0.1539  0.0627
    1WF      WF65161  22.415   7.574   6.713 -0.2276  0.3104  0.0413
    1WF      WF65162   9.533   2.794   1.675  0.0573 -0.0858  0.0661
    1WF      WF65163  25.099  21.509   8.075  0.2797 -0.0022  0.1581
    1WF      WF65164   0.428  17.377   8.823 -0.1242 -0.3729 -0.0220
    1WF      WF65165   4.691   8.471   0.234 -0.0256 -0.1531 -0.3520
    1WF      WF65166  26.493   3.671   9.410 -0.4382  0.0433 -0.2061
    1WF      WF65167  22.354  13.330   1.060  0.1089 -0.0854 -0.1406
    1WF      WF65168   1.021   0.835   7.987  0.1031  0.2529  0.1572
    1WF      WF65169   0.337  25.040   8.525 -0.2311  0.3303 -0.1878
    1WF      WF65170  23.149  12.114   8.388  0.1114  0.0073 -0.1593
    1WF      WF65171  13.966   5.485   9.150  0.1382 -0.0202 -0.0876
    1WF      WF65172  21.530   9.832   8.222 -0.1003 -0.0252  0.6256
    1WF      WF65173  24.883  22.268   1.511  0.0267 -0.2343  0.0384
    1WF      WF65174  26.100   7.791   0.851 -0.1473  0.2990 -0.0144
    1WF      WF65175  19.439   1.458   9.333 -0.1046  0.0217  0.0044
    1WF      WF65176  28.447  29.124   6.492 -0.1939 -0.2500 -0.0130
    1WF      WF65177  23.762   7.081   9.158 -0.2625 -0.0960 -0.0122
    1WF      WF65178   1.359  15.387   6.074  0.2419  0.0532 -0.2538
    1WF      WF65179  18.091  25.020   0.963  0.0639  0.0511 -0.0858
    1WF      WF65180  10.258   9.349   3.171 -0.2000  0.1574 -0.0500
    1WF      WF65181  10.993  26.172   1.191 -0.0279  0.1043  0.3817
    1WF      WF65182   2.156  26.211   8.675  0.0017 -0.1853  0.2047
    1WF      WF65183   9.535   5.970   0.262  0.0639 -0.1132  0.0571
    1WF      WF65184  18.384  24.547   3.231  0.0683  0.2208  0.2766
    1WF      WF65185  27.735   9.039   0.157 -0.3732  0.2155  0.2064
    1WF      WF65186   8.105  22.108   9.397 -0.0234 -0.0795 -0.1008
    1WF      WF65187   4.012  27.773   2.741  0.0705  0.0385  0.0690
    1WF      WF65188  20.885  18.762   9.232  0.1598  0.0973  0.0897
    1WF      WF65189  12.521  18.523   9.456  0.2901  0.0879  0.3935
    1WF      WF65190  23.409  25.087   8.663 -0.0681  0.1616 -0.1257
    1WF      WF65191  22.314  26.336   0.890  0.4826  0.1018  0.3707
    1WF      WF65192  12.026  21.206   0.013 -0.0414 -0.1280 -0.2403
    1WF      WF65193  27.755   9.976   0.259  0.3490  0.0111 -0.3745
    1WF      WF65194  25.581  16.587   8.673  0.0227  0.1416 -0.3900
    1WF      WF65195   8.424   2.678   8.476 -0.0949  0.0697  0.4182
    1WF      WF65196   2.298  17.246   9.268  0.0503  0.0925  0.0477
    1WF      WF65197   2.209  25.355   8.554  0.3583  0.3308 -0.0693
    1WF      WF65198   8.259  16.015   0.459  0.3685 -0.2722  0.2753
    1WF      WF65199  28.180  21.876   0.369  0.2117  0.1188  0.1954
    1WF      WF65200  28.431  20.791   0.750  0.1572 -0.0442 -0.1507
    1WF      WF65201  10.443  13.176   8.701  0.0102 -0.0459 -0.1019
    1WF      WF65202   8.860  25.877   8.721  0.1913  0.2025  0.2730
    1WF      WF65203  12.654  17.654   2.399 -0.0914  0.3181 -0.4684
    1WF      WF65204   5.872  25.027   0.440  0.2636 -0.0618  0.2757
    1WF      WF65205  21.134  20.707   8.594 -0.0157  0.0961  0.2394
    1WF      WF65206   9.889  18.930   1.254 -0.0355  0.2101  0.4270
    1WF      WF65207  25.659   7.118   9.671 -0.2040 -0.4170  0.2619
    1WF      WF65208  28.261   3.710   0.554 -0.1270  0.1131 -0.2761
    1WF      WF65209  17.136  18.945   9.119  0.2450  0.0790 -0.0185
    1WF      WF65210  14.873   3.012   2.659  0.0634  0.0057  0.1558
    1WF      WF65211  26.963  13.047   8.529  0.1208  0.2164 -0.0512
    1WF      WF65212  20.560  19.739   8.966  0.0338 -0.0855  0.4543
    1WF      WF65213  27.767   5.575   7.424 -0.2547 -0.0349  0.1463
    1WF      WF65214  16.498  19.616   0.142 -0.1210  0.0024  0.1726
    1WF      WF65215  14.191  16.094   0.599  0.0704  0.0765  0.0508
    1WF      WF65216   1.376   2.095   3.733  0.2641 -0.1696  0.3242
    1WF      WF65217   1.930  27.325   2.132  0.0007  0.2809 -0.0694
    1WF      WF65218   5.935   5.784   8.963 -0.0591 -0.0409  0.0005
    1WF      WF65219  25.624  21.115   1.790  0.1279  0.1983  0.0065
    1WF      WF65220  21.512  24.708   9.120  0.0052  0.0547 -0.0740
    1WF      WF65221  26.394  17.654   3.211  0.0869  0.2741  0.0682
    1WF      WF65222  23.757   1.147   7.921  0.0616  0.2365 -0.0465
    1WF      WF65223  10.349   5.280   1.195 -0.1127  0.3192  0.1742
    1WF      WF65224  14.382  23.591   1.530 -0.2525  0.1564 -0.2225
    1WF      WF65225  14.930  28.076   0.409 -0.2833 -0.0231 -0.0122
    1WF      WF65226  17.232   0.103   1.832 -0.2213 -0.1251  0.0492
    1WF      WF65227  17.763  22.816   0.611 -0.1764  0.1760 -0.0813
    1WF      WF65228  24.713  26.355   1.839  0.1441  0.3845  0.1393
    1WF      WF65229  26.274   7.777   7.349  0.0189 -0.0321 -0.2450
    1WF      WF65230   8.614  14.634   6.440 -0.0538  0.1791  0.1659
    1WF      WF65231  27.142  26.827   1.628 -0.0062 -0.1439 -0.0970
    1WF      WF65232  17.947  26.540   8.754  0.2124 -0.0203 -0.1138
    1WF      WF65233  27.978  23.549   9.163  0.1012 -0.2004 -0.0225
    1WF      WF65234  21.583  16.652   8.178  0.0168  0.0128  0.0412
    1WF      WF65235   3.752  28.751   9.080  0.0119 -0.0444  0.1704
    1WF      WF65236  19.054   9.576   1.899 -0.1413 -0.4122 -0.3727
    1WF      WF65237  18.619   7.197   8.472  0.1051 -0.2183 -0.0666
    1WF      WF65238   3.734  22.399   1.169 -0.1565 -0.2910  0.1172
    1WF      WF65239  10.764  24.963   1.855  0.1938 -0.2600 -0.1917
    1WF      WF65240   4.969   4.765   1.343 -0.2782 -0.1732 -0.1477
    1WF      WF65241  18.674   8.478   0.820 -0.2912  0.1530 -0.0363
    1WF      WF65242  12.483   2.859   2.613  0.0339 -0.1237 -0.0719
    1WF      WF65243   6.392  24.923   0.455  0.3351  0.0619 -0.1885
    1WF      WF65244  21.119   4.937   9.143  0.0525 -0.1813  0.1023
    1WF      WF65245  10.341  29.357   9.514  0.0782  0.0974  0.2774
    1WF      WF65246  25.848  16.304   8.993  0.1805  0.0047  0.0592
    1WF      WF65247  24.400  18.125   1.925  0.0499 -0.1173 -0.0014
    1WF      WF65248  17.952  28.470   0.012 -0.0510  0.0741  0.0878
    1WF      WF65249   2.067  13.405   1.141 -0.3072  0.0865 -0.3355
    1WF      WF65250  23.237   5.844   8.823  0.1986  0.0335  0.2971
    1WF      WF65251  18.222  21.235   9.116 -0.0967  0.3045  0.0599
    1WF      WF65252  14.043  13.811   9.303  0.1565 -0.2323 -0.1310
    1WF      WF65253  17.761   2.625   0.204  0.3717 -0.2500  0.0991
    1WF      WF65254  23.545   9.259   7.807 -0.1690 -0.3393  0.0126
    1WF      WF65255  20.351  28.447   1.056  0.1769 -0.0748  0.0027
    1WF      WF65256  13.604  23.741   8.298  0.0122 -0.1540 -0.3045
    1WF      WF65257   4.330  24.791   8.802  0.0101 -0.1036 -0.0102
    1WF      WF65258   2.201   6.226   7.772 -0.1826  0.1371 -0.3011
    1WF      WF65259   1.263  18.773   5.479 -0.2446 -0.1371 -0.0951
    1WF      WF65260   2.483  28.308   1.045 -0.1711  0.0119 -0.0401
    1WF      WF65261   9.487  23.023   8.266 -0.3307  0.2072  0.3521
    1WF      WF65262  18.726  24.633   8.532  0.2018  0.3215 -0.2209
    1WF      WF65263  18.658  28.907   1.901 -0.2255  0.2828  0.2317
    1WF      WF65264  26.251  17.357   0.301 -0.2698  0.0300 -0.1097
    1WF      WF65265  24.975   4.568   8.874  0.1192 -0.0419 -0.1161
    1WF      WF65266   6.471  23.294   7.787  0.1777 -0.0805  0.1644
    1WF      WF65267  11.269   0.153   0.210  0.1172 -0.0169  0.1199
    1WF      WF65268  15.329  12.961   1.161 -0.2253 -0.1958  0.0292
    1WF      WF65269   2.988   4.086   9.526 -0.2694  0.1062  0.0538
    1WF      WF65270  19.883  16.399   2.126  0.0458 -0.2206 -0.0673
    1WF      WF65271  24.241  11.077   0.299  0.0973  0.1819  0.3641
    1WF      WF65272  12.833  24.633   2.705 -0.0347 -0.3100  0.0803
    1WF      WF65273   2.693   6.085   7.937  0.0785 -0.1997 -0.1522
    1WF      WF65274   3.247  19.067   9.160 -0.1857  0.0763 -0.1387
    1WF      WF65275  21.153   9.037   8.511 -0.0795  0.2315 -0.0466
    1WF      WF65276  14.713   3.599   2.689 -0.1209  0.1567  0.1310
    1WF      WF65277  23.209  24.658   8.785 -0.1071 -0.0845  0.2418
    1WF      WF65278   2.541  19.846   6.926 -0.1301  0.0599 -0.0282
    1WF      WF65279   5.630   5.676   7.702  0.0356 -0.1415 -0.2642
    1WF      WF65280   0.362   0.390   1.674  0.3705 -0.1614 -0.0452
    1WF      WF65281   9.645  15.832   0.163 -0.0506 -0.0840  0.3492
    1WF      WF65282  26.133   8.286   0.952  0.1467 -0.0911 -0.2302
    1WF      WF65283  15.360  11.644   1.263  0.0551 -0.2178 -0.2148
    1WF      WF65284  22.491  27.093   1.398 -0.1211  0.5135 -0.1290
    1WF      WF65285  24.008  16.899   7.955  0.0225 -0.1050 -0.0225
    1WF      WF65286  23.120  12.567   8.284  0.0636 -0.1014 -0.0926
    1WF      WF65287   2.121  15.018   7.158  0.0158 -0.1172  0.1317
    1WF      WF65288   5.399   6.782   7.514 -0.0096  0.0208  0.0163
    1WF      WF65289  19.921  17.898   8.447  0.3221 -0.0059 -0.1852
    1WF      WF65290   3.036  19.540   5.745  0.0442 -0.1727  0.0229
    1WF      WF65291   1.951   3.505   3.042  0.2262 -0.3655 -0.3613
    1WF      WF65292  10.853  15.824   1.253 -0.1193 -0.1034  0.1546
    1WF      WF65293   3.285  15.042   0.460 -0.4020  0.2384  0.1068
    1WF      WF65294  16.252  29.176   1.022  0.1929 -0.1467  0.0027
    1WF      WF65295   9.807  22.722   0.039 -0.0784  0.1324 -0.1961
    1WF      WF65296   3.291  24.857   7.809 -0.3018 -0.0703 -0.0680
    1WF      WF65297  12.248  20.776   8.172  0.0465  0.1206  0.1603
    1WF      WF65298  11.328  22.462   0.894  0.0552  0.1176  0.0736
    1WF      WF65299   8.392  19.304   0.787 -0.1062  0.2010 -0.1860
    1WF      WF65300  18.094  13.320   8.512 -0.0573 -0.1334  0.1042
    1WF      WF65301   4.675   1.694   7.568 -0.1568 -0.0988 -0.0191
    1WF      WF65302  21.991   4.730   0.293 -0.0381 -0.1170  0.0348
    1WF      WF65303  14.194   8.776   0.283 -0.0858 -0.1895 -0.2991
    1WF      WF65304  24.884  24.077   6.044 -0.1761 -0.2297  0.1882
    1WF      WF65305   1.612   1.261   7.258  0.0648  0.1321  0.0453
    1WF      WF65306  25.814  24.130   8.874 -0.0380 -0.1249  0.1588
    1WF      WF65307  20.590  17.217   9.634  0.1011  0.0947  0.0257
    1WF      WF65308  25.613  27.330   2.006 -0.2354 -0.0840 -0.4131
    1WF      WF65309  10.046   9.326   9.473  0.2488 -0.2183 -0.2540
    1WF      WF65310   0.233   9.087   8.002  0.0638 -0.2561  0.0975
    1WF      WF65311   4.759  13.995   0.654  0.1821  0.1670  0.0834
    1WF      WF65312   2.116   6.708   2.268  0.0469  0.0082 -0.2850
    1WF      WF65313  28.877   4.275   7.517 -0.1484 -0.2624 -0.3930
    1WF      WF65314  13.754   2.374   6.910 -0.1934  0.3671  0.0625
    1WF      WF65315  23.713  14.162   0.819 -0.1943 -0.0711 -0.0127
    1WF      WF65316  22.775  13.504   0.186  0.3379  0.2893  0.1504
    1WF      WF65317  19.950  11.406   1.667 -0.0308 -0.2974 -0.3571
    1WF      WF65318  24.940   7.390   7.983  0.0609  0.2001 -0.2139
    1WF      WF65319   2.372  15.144   9.033 -0.2206 -0.1863 -0.1805
    1WF      WF65320   3.379  27.026   0.340 -0.0434  0.1827 -0.0063
    1WF      WF65321  16.818  17.831   0.699  0.0502 -0.2801  0.1807
    1WF      WF65322  25.880  13.182   7.464  0.1883  0.1561 -0.0401
    1WF      WF65323   9.838  10.745   1.619  0.0050  0.0083 -0.0174
    1WF      WF65324  16.433   5.447   9.624 -0.0011  0.1758 -0.0936
    1WF      WF65325  13.175  11.539   9.463  0.0194 -0.1062 -0.2486
    1WF      WF65326  27.279  15.214   0.839  0.3649 -0.1165  0.3338
    1WF      WF65327  16.826  12.734   9.131  0.3265  0.0533 -0.0246
    1WF      WF65328  22.713   1.580   7.673  0.1473  0.4223  0.2355
    1WF      WF65329  16.534   3.504   0.723 -0.0804 -0.1108 -0.0516
    1WF      WF65330  14.995  13.620   9.421 -0.1332 -0.3443  0.0220
    1WF      WF65331   2.450  10.238   9.529  0.1421 -0.0545  0.0906
    1WF      WF65332  27.297  23.537   0.478  0.0062 -0.1129 -0.3192
    1WF      WF65333  14.911  23.213   9.266  0.0046 -0.1683 -0.1179
    1WF      WF65334   6.490   0.583   8.404 -0.0777 -0.1267 -0.1655
    1WF      WF65335  22.877   8.230   1.686 -0.2075  0.3287  0.1219
    1WF      WF65336  16.283  11.678   9.357 -0.0525  0.0737  0.2929
    1WF      WF65337   5.848   0.020   0.648  0.1896 -0.0741 -0.1874
    1WF      WF65338   0.376  24.800   8.027 -0.3202  0.0387  0.0805
    1WF      WF65339   6.055   3.242   0.203  0.0043  0.1605 -0.1851
    1WF      WF65340  28.809  25.017   8.444  0.0707 -0.1708 -0.0344
    1WF      WF65341  25.785  18.794   1.477  0.3222 -0.0818  0.1081
    1WF      WF65342   5.682   5.163   0.244 -0.2159  0.1006 -0.0698
    1WF      WF65343   1.160  11.244   7.803 -0.3365 -0.1021 -0.1924
    1WF      WF65344  12.132  20.415   7.787  0.0460 -0.1679  0.0605
    1WF      WF65345   9.174  16.120   0.096 -0.1455 -0.0724  0.0137
    1WF      WF65346  23.641  20.119   1.265 -0.1506 -0.1465 -0.0299
    1WF      WF65347   8.772   0.794   3.804 -0.0737 -0.2033  0.0349
    1WF      WF65348   0.020  15.465   7.661 -0.1605  0.0603  0.2626
    1WF      WF65349   7.107  21.780   2.668  0.1072 -0.2679 -0.0427
    1WF      WF65350  27.084  17.300   7.222  0.0026 -0.2222 -0.0935
    1WF      WF65351   8.553   4.625   8.022 -0.2145 -0.0244  0.0254
    1WF      WF65352  10.388  22.816   0.722  0.0882 -0.0686 -0.0063
    1WF      WF65353   2.654  15.073   7.067 -0.1620  0.1905  0.2210
    1WF      WF65354  28.507  27.239   8.860  0.0416 -0.1238 -0.1875
    1WF      WF65355  19.704  23.129   8.491  0.2831  0.1105 -0.1010
    1WF      WF65356  28.890  10.827   0.752  0.6433  0.3166 -0.1068
    1WF      WF65357  12.660  27.879   0.421  0.2060  0.2249  0.0501
    1WF      WF65358  13.121  11.605   1.801  0.1678  0.2039  0.0708
    1WF      WF65359   4.259  23.713   8.686  0.1019  0.1932 -0.0260
    1WF      WF65360  26.776  27.873   0.331 -0.0656  0.0267  0.0778
    1WF      WF65361  10.250  15.172   0.820  0.0151 -0.0750 -0.3058
    1WF      WF65362   9.572  14.553   0.505  0.0552 -0.0927 -0.2083
    1WF      WF65363  17.873   8.803   1.565  0.1508  0.1485 -0.1705
    1WF      WF65364   8.280  14.224   6.572 -0.0182 -0.3771 -0.0234
    1WF      WF65365  25.366   2.712   0.082  0.2805  0.0550  0.0373
    1WF      WF65366  10.397  26.519   3.408  0.0363 -0.3470 -0.0120
    1WF      WF65367  15.300  12.352   0.094 -0.0443 -0.3750 -0.1365
    1WF      WF65368  10.116  17.590   0.355  0.0672 -0.2089 -0.0890
    1WF      WF65369   0.822   0.361   7.904  0.0138  0.0044 -0.1013
    1WF      WF65370  27.385  19.090   8.928 -0.1431 -0.0126  0.0990
    1WF      WF65371  23.105  27.307   7.967  0.2095  0.0638 -0.0049
    1WF      WF65372  26.738   3.702   0.231 -0.0001 -0.2241 -0.0147
    1WF      WF65373   9.032  13.779   9.320  0.1224 -0.0145  0.3255
    1WF      WF65374   7.545  18.709   7.340 -0.3428  0.0509  0.1940
    1WF      WF65375   5.674  11.542   1.964  0.2230 -0.0018 -0.1028
    1WF      WF65376  15.821   4.074   2.160  0.2790 -0.0906  0.1813
    1WF      WF65377  21.235   9.207   0.248 -0.1417  0.0220  0.2259
    1WF      WF65378   0.788  28.017   8.989  0.0314 -0.2641  0.2388
    1WF      WF65379   0.089  11.140   2.546  0.1547  0.1360  0.1634
    1WF      WF65380  20.540   9.286   8.583  0.2293 -0.0151  0.0539
    1WF      WF65381  28.758   0.498   8.000  0.0412  0.3169  0.0287
    1WF      WF65382  11.030   8.560   1.861 -0.0012 -0.0516 -0.0921
    1WF      WF65383  12.416  12.351   8.215  0.0483 -0.0032 -0.2129
    1WF      WF65384  29.161   0.729   8.175  0.3259 -0.0966 -0.0618
    1WF      WF65385  19.180  13.344   7.518 -0.4561 -0.1087 -0.0085
    1WF      WF65386   2.004   5.162   0.305 -0.0762 -0.1812 -0.0097
    1WF      WF65387   0.937  26.725   9.409 -0.0046  0.0343 -0.0291
    1WF      WF65388  11.943  21.635   9.458 -0.2023 -0.3528 -0.0214
    1WF      WF65389   9.126  18.446   8.802 -0.0991 -0.0062 -0.0074
    1WF      WF65390  15.394  19.124   7.219 -0.1052 -0.1935  0.1041
    1WF      WF65391  22.313   6.551   0.362  0.1620 -0.2159  0.1722
    1WF      WF65392  10.090   7.747   8.467  0.0691  0.1049  0.0715
    1WF      WF65393  28.984   0.335   8.427  0.3627 -0.0435  0.0107
    1WF      WF65394  16.800  27.637   1.541 -0.1678 -0.3245  0.1452
    1WF      WF65395  20.297  26.265   8.017  0.2566 -0.3426 -0.2195
    1WF      WF65396  12.806   8.658   3.419  0.0182 -0.1442 -0.0994
    1WF      WF65397   8.339   4.707   2.687  0.3160 -0.2582  0.0907
    1WF      WF65398   6.178  13.580   0.678 -0.2418 -0.0303 -0.1051
    1WF      WF65399  24.490   5.732   0.782 -0.1771  0.0406 -0.0927
    1WF      WF65400  16.468  15.714   6.783  0.1303  0.1758  0.3654
    1WF      WF65401  28.640  10.562   8.018  0.0815  0.0723 -0.0679
    1WF      WF65402  18.522   3.207   8.328 -0.2674  0.0527  0.1030
    1WF      WF65403  11.354  12.928   0.713 -0.0725  0.0759 -0.1486
    1WF      WF65404   6.904  14.437   0.720 -0.0372  0.1131 -0.0657
    1WF      WF65405  21.334  10.607   9.397  0.2181  0.0305 -0.1450
    1WF      WF65406  21.970   0.007   0.538 -0.0874  0.4381  0.1914
    1WF      WF65407  27.860   5.366   7.877  0.1508 -0.1406 -0.4798
    1WF      WF65408   4.270   5.724   8.859 -0.3688 -0.0130 -0.3609
    1WF      WF65409  26.149  27.009   9.439  0.0762 -0.1287 -0.3192
    1WF      WF65410   0.675  28.600   8.841 -0.0296  0.3217  0.1347
    1WF      WF65411  14.987   3.764   1.499  0.0921 -0.2691 -0.0900
    1WF      WF65412  13.036  24.688   1.927  0.2669 -0.2396  0.1374
    1WF      WF65413   3.073   5.737   7.953 -0.0729  0.1737  0.1371
    1WF      WF65414  28.420   1.223   6.709  0.0634 -0.1233 -0.2437
    1WF      WF65415   0.211  29.036   0.938 -0.0218  0.2638  0.1174
    1WF      WF65416  22.520  21.442   1.089 -0.4500 -0.1666 -0.0302
    1WF      WF65417  21.858  24.415   0.342  0.1910  0.2371  0.0739
    1WF      WF65418   7.835  19.108   2.639  0.1040 -0.0833  0.2788
    1WF      WF65419  10.556  27.871   2.177 -0.0526 -0.2134  0.0065
    1WF      WF65420  11.133   8.074   1.584 -0.2425  0.0292 -0.0131
    1WF      WF65421   6.947   4.689   8.569 -0.0621 -0.1024  0.1361
    1WF      WF65422   1.699  23.781   8.513  0.2427  0.3814  0.2512
    1WF      WF65423  28.233   6.986   8.203 -0.1923 -0.0784 -0.3692
    1WF      WF65424  15.470  16.787   8.617  0.0952 -0.0365 -0.1726
    1WF      WF65425  23.323  17.241   8.816  0.3558  0.1680  0.1345
    1WF      WF65426   2.385   5.008   1.395  0.1307  0.0078 -0.3118
    1WF      WF65427  23.086  18.025   1.035  0.1398  0.0048 -0.2245
    1WF      WF65428  25.769   9.406   8.545 -0.0204  0.0250 -0.1601
    1WF      WF65429  15.666   7.599   0.456  0.0499  0.2085 -0.0810
    1WF      WF65430  13.986  26.205   9.030 -0.1091 -0.0579 -0.3112
    1WF      WF65431  11.233  10.166   0.588  0.0800 -0.2286 -0.1482
    1WF      WF65432  28.585   2.111   2.592  0.2116 -0.3020  0.1064
    1WF      WF65433  22.431  27.575   1.563 -0.0816 -0.1584  0.1979
    1WF      WF65434   9.950   5.344   1.443  0.0313  0.1192  0.1776
    1WF      WF65435   8.489   4.393   3.396 -0.1724 -0.1287  0.2923
    1WF      WF65436   0.419  23.689   8.702 -0.3602  0.2050 -0.0095
    1WF      WF65437  23.280  19.822   1.038  0.0064 -0.2592 -0.2173
    1WF      WF65438  21.592   0.450   1.161 -0.1072  0.2026  0.2842
    1WF      WF65439  28.120  22.099   0.817 -0.0878  0.4654  0.0380
    1WF      WF65440  15.173   8.108   9.601 -0.1300  0.1282  0.0475
    1WF      WF65441  25.913  12.512   8.827  0.2839 -0.0073 -0.0541
    1WF      WF65442  26.204  17.560   8.621 -0.1981  0.0234  0.1850
    1WF      WF65443  27.017  26.214   7.777  0.4103  0.0532 -0.1880
    1WF      WF65444  21.269  17.746   7.687 -0.4205  0.2982  0.1051
    1WF      WF65445   8.611  25.311   1.659  0.2573  0.1851 -0.4034
    1WF      WF65446  11.057  24.023   2.514 -0.0956 -0.1923  0.2368
    1WF      WF65447  18.493  22.105   6.655 -0.2594 -0.2961 -0.1060
    1WF      WF65448   4.174  24.315   3.038 -0.0462  0.0880  0.1186
    1WF      WF65449  12.089  25.566   8.771  0.2995 -0.0458  0.0083
    1WF      WF65450  24.449  10.661   0.137  0.2302  0.4024  0.0270
    1WF      WF65451  18.382   4.696   1.619  0.0969 -0.1714 -0.0007
    1WF      WF65452  25.240   7.272   9.207 -0.0675 -0.3210 -0.1350
    1WF      WF65453  20.496  17.117   0.830 -0.1100 -0.1551 -0.1427
    1WF      WF65454  23.817   0.858   6.648  0.0320  0.1270 -0.0172
    1WF      WF65455   2.304   6.067   8.289 -0.0722 -0.3548  0.1546
    1WF      WF65456  28.639  27.379   9.414 -0.1262 -0.2233  0.1044
    1WF      WF65457  20.898  17.002   0.486 -0.2004 -0.3959 -0.0628
    1WF      WF65458  29.345  12.943   7.684 -0.3360  0.0077 -0.3080
    1WF      WF65459  20.763  18.732   2.015  0.0880  0.0682 -0.1993
    1WF      WF65460  28.667  14.145   9.592  0.1289  0.1114 -0.1885
    1WF      WF65461   3.504   9.941   2.234 -0.1989 -0.1266  0.0168
    1WF      WF65462  12.434  28.636   1.957  0.1859  0.2130 -0.1676
    1WF      WF65463  17.429  22.834   9.185  0.0440  0.1657  0.1650
    1WF      WF65464  19.929  22.256   0.784  0.2842 -0.0266 -0.0426
    1WF      WF65465   9.752   5.951   3.077 -0.2603  0.0067 -0.0244
    1WF      WF65466  11.934  20.231   2.440 -0.1006 -0.3289  0.2390
    1WF      WF65467  13.463   1.721   9.270  0.0277 -0.0934 -0.1426
    1WF      WF65468   9.236  13.108   1.197 -0.1559  0.2083 -0.1434
    1WF      WF65469  28.924   8.041   1.337 -0.0708 -0.0164  0.2553
    1WF      WF65470  13.466  23.617   9.632 -0.0922  0.1954 -0.0957
    1WF      WF65471  19.754   8.394   0.433  0.0470 -0.1052 -0.0022
    1WF      WF65472  23.218  19.588   0.580 -0.0419 -0.2040 -0.1576
    1WF      WF65473   0.060   7.998   1.097  0.1376  0.0321 -0.0306
    1WF      WF65474   6.687  12.725   0.273 -0.1142  0.0598  0.0812
    1WF      WF65475  25.892  10.799   2.000  0.0927 -0.1334  0.0113
    1WF      WF65476   1.356  15.915   9.029 -0.3656 -0.3377  0.1948
    1WF      WF65477  11.500  29.029   1.453 -0.0601  0.2642 -0.2741
    1WF      WF65478  16.886  15.192   9.278 -0.0524 -0.0794  0.2112
    1WF      WF65479  12.028  26.598   0.306 -0.0179  0.0925  0.0735
    1WF      WF65480  17.016  15.052   8.803 -0.1964 -0.1536  0.1940
    1WF      WF65481   4.712   4.525   8.990  0.4721 -0.1123 -0.0375
    1WF      WF65482   5.499  26.836   3.105  0.3053  0.0271  0.0004
    1WF      WF65483  13.680  10.785   0.581  0.4588 -0.3739  0.0981
    1WF      WF65484  18.923  26.312   6.848 -0.0653  0.2556  0.1586
    1WF      WF65485   4.463  16.456   6.467 -0.1130 -0.3025  0.0717
    1WF      WF65486   9.516  23.796   6.465  0.1890  0.1490  0.0293
    1WF      WF65487  23.023  12.400   9.201 -0.5185 -0.0837 -0.0889
    1WF      WF65488   4.119  23.989   0.753  0.0896  0.4500  0.0004
    1WF      WF65489  12.987  19.617   1.446  0.1036 -0.0017  0.3461
    1WF      WF65490   2.719  15.633   9.044  0.0730  0.1136  0.0370
    1WF      WF65491  16.022  12.539   8.904 -0.0928 -0.3008 -0.0212
    1WF      WF65492   5.113  15.661   9.149 -0.1765 -0.1119 -0.4368
    1WF      WF65493  10.744  28.569   2.181  0.1827  0.0890 -0.2007
    1WF      WF65494  21.427   6.168   1.582 -0.1208 -0.1187 -0.2278
    1WF      WF65495  17.332   5.427   0.312 -0.3882 -0.0483  0.2743
    1WF      WF65496  20.528   3.988   8.590 -0.0741 -0.1756 -0.2868
    1WF      WF65497  22.761  22.333   2.276  0.1191  0.0723  0.0396
    1WF      WF65498  21.891  26.319   9.027  0.0331  0.1922 -0.1832
    1WF      WF65499  22.905  13.084   6.016  0.0175 -0.4216 -0.1132
    1WF      WF65500  15.361  17.995   8.674 -0.0092 -0.0108  0.1816
    1WF      WF65501   2.061   9.409   0.576  0.0689 -0.1546  0.0750
    1WF      WF65502   4.910   5.987   6.289 -0.0504 -0.0875 -0.0207
    1WF      WF65503  17.559  18.833   8.819 -0.0536 -0.2770  0.1599
    1WF      WF65504   0.821   1.635   6.534 -0.0588 -0.2374  0.1300
    1WF      WF65505   0.562   8.047   8.794 -0.0418 -0.0095  0.1290
    1WF      WF65506   0.108  18.361   0.387  0.2238  0.2163 -0.0180
    1WF      WF65507   2.798  13.944   0.050  0.0801 -0.3352  0.0559
    1WF      WF65508  19.437  12.700   8.933 -0.0274 -0.0324 -0.1011
    1WF      WF65509  26.508  22.176   7.685  0.0357  0.2362 -0.1641
    1WF      WF65510  11.000  14.323   2.575 -0.2069 -0.1505 -0.2036
    1WF      WF65511   0.065  25.532   0.739  0.0533 -0.1193  0.0781
    1WF      WF65512  26.080   8.419   6.689  0.0342 -0.4737  0.0499
    1WF      WF65513  18.109   9.001   8.252  0.0506  0.2274  0.1909
    1WF      WF65514  15.182  26.853   2.642  0.0479 -0.3030  0.0204
    1WF      WF65515  16.653  22.429   8.905 -0.1094 -0.0998  0.1539
    1WF      WF65516  19.543  21.068   1.006  0.1270 -0.1419 -0.0764
    1WF      WF65517  13.050  26.997   1.711  0.2621 -0.0465 -0.1773
    1WF      WF65518  14.081  24.949   0.907  0.2034  0.0180  0.3472
    1WF      WF65519   2.141  27.122   0.972 -0.1540  0.0447 -0.0031
    1WF      WF65520   7.374  16.212   1.128  0.1779 -0.0534 -0.0473
    1WF      WF65521  15.282   8.593   9.619  0.4458  0.1563  0.2507
    1WF      WF65522   6.134  26.328   7.702  0.0591 -0.2929 -0.1313
    1WF      WF65523  24.184   5.978   7.656  0.3143 -0.0159  0.1088
    1WF      WF65524   7.070  25.711   0.001  0.1153 -0.0966  0.0607
    1WF      WF65525  15.370   8.257   1.850 -0.0799 -0.0191 -0.0950
    1WF      WF65526   9.226  24.995   2.127  0.0022  0.4298  0.2552
    1WF      WF65527  11.572  25.783   3.046  0.0172 -0.0142 -0.1559
    1WF      WF65528  11.253   7.142   0.198 -0.0223 -0.1893 -0.0379
    1WF      WF65529  17.171   7.518   9.106  0.1108  0.1652  0.3180
    1WF      WF65530  10.615   2.234   0.461  0.0952  0.0644 -0.0543
    1WF      WF65531   2.186  24.234   9.460 -0.1089  0.2369  0.0232
    1WF      WF65532   5.400  21.372   8.382  0.0407  0.0259  0.1223
    1WF      WF65533  18.063   3.021   8.462 -0.1159  0.0574 -0.4304
    1WF      WF65534   5.510   6.791   0.776 -0.2958 -0.0467 -0.2133
    1WF      WF65535  18.873   9.927   9.485  0.2978 -0.3106  0.1333
    1WF      WF65536   1.028  28.875   8.679 -0.2008  0.0296  0.0081
    1WF      WF65537  22.415   7.602   3.112  0.0381  0.1762 -0.1430
    1WF      WF65538  11.473  21.205   0.840 -0.0129 -0.1673 -0.0542
    1WF      WF65539  24.251   6.089   0.497  0.0018 -0.1271 -0.1217
    1WF      WF65540  18.260  13.620   8.851 -0.0079  0.1079  0.0542
    1WF      WF65541  28.540   4.722   7.580 -0.0700  0.0739  0.0204
    1WF      WF65542  17.891   9.936   9.080 -0.1104 -0.1698 -0.1259
    1WF      WF65543  17.380   7.225   9.534  0.0225  0.0868  0.0980
    1WF      WF65544  16.002  26.619   0.630 -0.2294  0.1714 -0.0938
    1WF      WF65545   4.594  13.707   1.100  0.2051  0.2208  0.2316
    1WF      WF65546   4.060  24.424   8.861  0.2343  0.4750  0.0058
    1WF      WF65547   8.729  24.963   2.039  0.1203 -0.1709  0.2100
    1WF      WF65548   5.708  11.404   0.110 -0.1183  0.1729 -0.0648
    1WF      WF65549  28.835  16.078   8.476 -0.0118 -0.1322  0.0499
    1WF      WF65550  24.113  10.355   6.885  0.0648  0.0209  0.1928
    1WF      WF65551  29.101  18.085   2.655 -0.2613  0.1347 -0.1432
    1WF      WF65552  22.632  12.319   0.022  0.1535 -0.0874  0.3721
    1WF      WF65553  20.449   0.892   0.138 -0.0044  0.0105  0.3564
    1WF      WF65554  13.455  22.008   0.200 -0.2913  0.0389  0.2022
    1WF      WF65555  12.471  13.480   0.025 -0.2584  0.0353 -0.1355
    1WF      WF65556  12.586  18.025   6.806  0.2727  0.1600  0.0570
    1WF      WF65557  17.436  10.871   7.971 -0.1193  0.0657 -0.1376
    1WF      WF65558  11.266   6.245   7.862  0.0957  0.0579 -0.1723
    1WF      WF65559   8.695  26.372   9.567 -0.2218  0.1250  0.1471
    1WF      WF65560   1.320  22.180   6.344  0.2484  0.0837  0.0945
    1WF      WF65561  12.033   0.145   1.065 -0.1122 -0.0842 -0.1262
    1WF      WF65562  17.759  26.206   8.291 -0.1435 -0.0524  0.0039
    1WF      WF65563  26.954  16.234   8.780 -0.0840  0.1071 -0.1135
    1WF      WF65564  25.907  27.403   3.088 -0.0091  0.1747 -0.1829
    1WF      WF65565   4.302  13.923   0.751  0.1587  0.1065 -0.0918
    1WF      WF65566   6.297  26.782   7.571  0.0819 -0.3503 -0.1608
    1WF      WF65567   9.776  14.777   8.628  0.2086  0.3880  0.1485
    1WF      WF65568  16.922   5.474   8.198 -0.1078 -0.2005 -0.2875
    1WF      WF65569  17.689  22.970   1.153 -0.1526 -0.0199 -0.2142
    1WF      WF65570   6.938  17.789   9.503  0.0289  0.1103 -0.2555
    1WF      WF65571  18.042   7.464   7.540  0.0803 -0.0751 -0.2032
    1WF      WF65572  20.076  13.496   1.398  0.1041 -0.2824  0.3901
    1WF      WF65573   4.140   3.999   1.858  0.1813  0.0907  0.3575
    1WF      WF65574   1.474   3.355   2.906  0.1222  0.0616 -0.1072
    1WF      WF65575  19.077  28.174   2.446  0.2555 -0.0473 -0.2971
    1WF      WF65576  10.824  21.111   7.386  0.2357 -0.1499 -0.0394
    1WF      WF65577  19.784   5.307   7.322  0.2073  0.0629  0.0161
    1WF      WF65578  12.041  19.377   1.462  0.0874 -0.3491 -0.1439
    1WF      WF65579   8.820  18.604   8.368 -0.0331  0.0770  0.0204
    1WF      WF65580  12.529  19.458   1.392  0.1170  0.3355  0.4644
    1WF      WF65581  14.034   5.979   8.878  0.2254 -0.0351 -0.1725
    1WF      WF65582  24.062  29.281   1.415  0.0080 -0.1345 -0.1400
    1WF      WF65583  19.786  11.594   7.957  0.0925 -0.0979  0.1334
    1WF      WF65584   2.692  10.597   8.285  0.0725 -0.0518  0.2320
    1WF      WF65585   6.989  28.022   1.190 -0.5653  0.1249  0.2085
    1WF      WF65586  25.443   4.485   5.856 -0.1861 -0.0531  0.0961
    1WF      WF65587   7.441   4.645   0.003  0.3524 -0.1120 -0.1644
    1WF      WF65588  11.146   1.280   6.956 -0.0734 -0.0856  0.0415
    1WF      WF65589  23.807  21.018   0.647 -0.1567 -0.0844 -0.3219
    1WF      WF65590  14.937  13.239   0.968 -0.2682 -0.0413 -0.1063
    1WF      WF65591   9.191  25.381   1.659 -0.0754  0.0412  0.1125
    1WF      WF65592  29.328   0.916   1.194 -0.0638 -0.2913  0.0126
    1WF      WF65593   1.860  23.497   8.147  0.0322 -0.1957 -0.1065
    1WF      WF65594   7.203  23.704   5.608 -0.1209 -0.1111 -0.0316
    1WF      WF65595  10.210   8.588   0.423  0.0271 -0.1815 -0.2126
    1WF      WF65596  18.182  16.996   0.779  0.1199 -0.0300  0.3839
    1WF      WF65597   5.621   8.676   8.078 -0.1421  0.2742  0.0834
    1WF      WF65598  13.718  21.600   0.161  0.0623 -0.1987 -0.0420
    1WF      WF65599   9.359  25.995   0.445  0.2705 -0.1239 -0.1291
    1WF      WF65600   4.118   4.513   8.747  0.2649  0.0518  0.2615
    1WF      WF65601   8.897  19.141   8.370  0.2100 -0.1556 -0.0386
    1WF      WF65602  20.555  19.438   6.807 -0.1838 -0.0010 -0.1247
    1WF      WF65603   7.191  27.241   1.528  0.1604  0.2416  0.1713
    1WF      WF65604  22.790   3.283   0.554  0.1551  0.3619  0.1695
    1WF      WF65605   2.775  23.593   9.551  0.3091  0.1248 -0.1077
    1WF      WF65606   1.710  16.423   1.218 -0.1870 -0.1406 -0.1312
    1WF      WF65607   9.792   7.332   2.564 -0.2670 -0.0631  0.2190
    1WF      WF65608   0.919  18.475   7.807 -0.2350  0.1687  0.2699
    1WF      WF65609   9.003  22.288   0.771  0.2087 -0.0977  0.2787
    1WF      WF65610  27.899   4.015   0.749 -0.0830  0.1005 -0.1340
    1WF      WF65611  24.970   9.971   1.922  0.0206  0.1135  0.2437
    1WF      WF65612   5.603  26.792   8.810  0.0065 -0.3625 -0.3727
    1WF      WF65613  14.273  23.506   7.694 -0.0589  0.1999 -0.1820
    1WF      WF65614  12.327   2.308   2.645 -0.1035  0.0861  0.1000
    1WF      WF65615   1.848   7.065   8.943  0.0101 -0.1315  0.1861
    1WF      WF65616   8.953  13.321   1.550 -0.2107 -0.3324 -0.1037
    1WF      WF65617  18.214   7.736   7.080 -0.0621 -0.2822 -0.2222
    1WF      WF65618   1.268   9.777   1.590  0.2822  0.2893  0.0653
    1WF      WF65619   6.726  25.453   2.984 -0.0641  0.0012  0.2194
    1WF      WF65620  25.612  29.127   9.460  0.1220  0.0469  0.0909
    1WF      WF65621   8.932  13.962   8.865 -0.1508 -0.0722  0.0981
    1WF      WF65622  11.355  28.071   1.258 -0.1816  0.0791  0.2389
    1WF      WF65623   6.271   6.670   6.256 -0.2405  0.0054 -0.0118
    1WF      WF65624  20.132  17.032   1.205 -0.2188 -0.1014  0.0476
    1WF      WF65625  21.966  20.785   3.113  0.0609  0.0107 -0.0105
    1WF      WF65626   0.692   7.106   8.347 -0.1303  0.2226 -0.0810
    1WF      WF65627   7.309   5.806   7.519  0.0229  0.0178  0.1829
    1WF      WF65628   6.052   7.315   8.612  0.1271 -0.0338 -0.2578
    1WF      WF65629  21.125  28.535   0.562 -0.1756  0.3215  0.1101
    1WF      WF65630  29.019  15.364   7.961  0.1796  0.0318 -0.1519
    1WF      WF65631   5.746  11.511   0.651 -0.3733 -0.1358  0.3940
    1WF      WF65632  24.675   3.639   0.683  0.0190 -0.2684 -0.2052
    1WF      WF65633  12.005  24.971   1.220  0.3086 -0.0544  0.1370
    1WF      WF65634  15.842  12.980   8.709  0.1735  0.0028  0.0021
    1WF      WF65635  23.872   8.882   5.920  0.1614  0.0014 -0.0700
    1WF      WF65636   7.927   2.644   8.634 -0.1402  0.2357  0.2138
    1WF      WF65637   4.524   4.210   8.653 -0.0174 -0.1372  0.3317
    1WF      WF65638   4.591  16.900   8.889 -0.0215 -0.1434 -0.1531
    1WF      WF65639  26.558  15.845   5.619  0.3970 -0.1984 -0.2879
    1WF      WF65640  21.952   4.352   0.621  0.1664 -0.2388 -0.4933
    1WF      WF65641  28.996  12.631   1.732  0.1676 -0.0468 -0.0751
    1WF      WF65642  23.291  21.829   1.003 -0.1902 -0.2231 -0.3375
    1WF      WF65643  16.302  28.799   9.124  0.3378  0.0679 -0.0584
    1WF      WF65644  27.168   8.503   7.755 -0.1132 -0.0936 -0.0830
    1WF      WF65645  10.114   7.901   7.896 -0.0967  0.1024  0.1890
    1WF      WF65646  18.461  10.839   6.966  0.0716 -0.1388 -0.0945
    1WF      WF65647   9.509  27.419   7.492  0.0953 -0.0754 -0.1359
    1WF      WF65648  23.451  21.572   2.711 -0.1166  0.1112 -0.1065
    1WF      WF65649   8.476  19.611   8.243  0.0338  0.0637 -0.3466
    1WF      WF65650  24.484   4.108   8.869  0.0591 -0.2463  0.1203
    1WF      WF65651  25.958  28.912   0.560 -0.2437 -0.0289  0.3891
    1WF      WF65652  23.078   4.555   1.471 -0.0054  0.1180 -0.3538
    1WF      WF65653   2.098   2.738   8.314 -0.0558 -0.1152 -0.3012
    1WF      WF65654  10.830   3.863   0.469 -0.0071 -0.2093  0.2028
    1WF      WF65655   3.653  22.002   7.784 -0.2274  0.3909  0.2089
    1WF      WF65656   8.062  17.390   1.512  0.0422  0.1804  0.1316
    1WF      WF65657  19.910   1.853   1.665  0.0263 -0.0712  0.0393
    1WF      WF65658   0.730  21.391   2.869  0.1380  0.0912 -0.1093
    1WF      WF65659   6.015  21.731   2.252  0.0249  0.2913 -0.0647
    1WF      WF65660  11.527  21.816   9.674 -0.0005  0.0164 -0.1362
    1WF      WF65661  20.559  21.097   3.146  0.0834  0.2054  0.3381
    1WF      WF65662  28.374   1.685   9.563 -0.4340 -0.0765  0.0910
    1WF      WF65663   1.902  25.587   0.739 -0.1320 -0.1946 -0.0041
    1WF      WF65664  10.861   2.624   1.238 -0.0676 -0.0394  0.2180
    1WF      WF65665  28.516  18.447   1.428  0.0321  0.2512 -0.1720
    1WF      WF65666  24.310   8.505   0.792 -0.2299  0.0962 -0.0046
    1WF      WF65667   8.602  22.266   9.395 -0.0438  0.1488 -0.0189
    1WF      WF65668  19.370   4.230   2.940 -0.0181 -0.0047 -0.1034
    1WF      WF65669  24.634  27.328   1.284  0.1932  0.1109 -0.0957
    1WF      WF65670   2.323  16.975   8.797  0.0621  0.0585 -0.1542
    1WF      WF65671  21.551  10.871   1.706 -0.0386  0.0922  0.1000
    1WF      WF65672  11.137  18.031   1.630  0.0549  0.2825 -0.0095
    1WF      WF65673  15.707   7.262   7.009  0.0206 -0.2443 -0.1475
    1WF      WF65674   8.709  16.292   8.462 -0.0701 -0.1415 -0.3926
    1WF      WF65675  10.180   1.600   1.708  0.2157  0.0443  0.0767
    1WF      WF65676  26.278  17.380   9.091 -0.0762  0.0360  0.1687
    1WF      WF65677   6.742  25.079   1.332 -0.3417  0.0403  0.4040
    1WF      WF65678  15.972  17.418   1.834  0.0411 -0.0885 -0.1716
    1WF      WF65679  24.431  26.834   0.995  0.0512  0.2858  0.1211
    1WF      WF65680  13.052  26.374   8.076 -0.1913 -0.0478  0.0617
    1WF      WF65681  26.276  13.320   6.343  0.3415 -0.2757 -0.1759
    1WF      WF65682  19.701  22.529   8.847 -0.0105  0.1253 -0.1226
    1WF      WF65683  14.780  18.212   0.252 -0.3289  0.0131  0.2648
    1WF      WF65684  22.209  12.459   0.310 -0.3990 -0.2082 -0.1259
    1WF      WF65685  27.058  28.069   8.369  0.1518 -0.0009 -0.0013
    1WF      WF65686  13.719   4.731   1.473 -0.0391  0.0765  0.1156
    1WF      WF65687   3.518  22.547   0.714  0.0418 -0.1255 -0.0367
    1WF      WF65688   9.878  15.226   8.507 -0.1239 -0.0169 -0.1912
    1WF      WF65689   1.447  16.570   0.787 -0.0879 -0.4425  0.1619
    1WF      WF65690  28.920   0.780   8.641 -0.1680  0.1295 -0.1725
    1WF      WF65691   3.426  26.495   0.276 -0.4786  0.0816 -0.0794
    1WF      WF65692   5.813  26.279   6.693 -0.3125  0.2339  0.0284
    1WF      WF65693   4.421   2.982   0.124  0.0280 -0.0422 -0.2514
    1WF      WF65694   5.728  14.634   7.455  0.0514  0.2614  0.2256
    1WF      WF65695  22.834  17.875   0.613 -0.4976 -0.0436 -0.3541
    1WF      WF65696   1.182  18.617   8.238 -0.1239 -0.2302 -0.1984
    1WF      WF65697  13.313  27.868   7.745  0.0003  0.0609  0.0862
    1WF      WF65698   2.311  21.679   1.514 -0.1933 -0.1007  0.0389
    1WF      WF65699   9.103  26.027   8.339  0.1060 -0.0458  0.3409
    1WF      WF65700  13.775   6.506   0.703  0.2747 -0.0196 -0.3696
    1WF      WF65701  22.298  14.711   2.525  0.1157 -0.0769  0.0032
    1WF      WF65702  13.700   5.211   1.635  0.3402  0.1911 -0.4708
    1WF      WF65703   2.946  28.794   2.114 -0.2713  0.4665  0.0977
    1WF      WF65704  25.248  28.583   7.751 -0.4921  0.1256 -0.0888
    1WF      WF65705  14.195   1.624   8.532 -0.0528 -0.0209  0.0282
    1WF      WF65706   6.822   3.922   3.370  0.1563 -0.0043 -0.0678
    1WF      WF65707   8.518  28.601   9.078 -0.2618 -0.2131 -0.3441
    1WF      WF65708  27.148  20.474   7.968 -0.0041 -0.0758  0.0978
    1WF      WF65709   0.844  13.520   0.511  0.1407 -0.0421  0.0231
    1WF      WF65710   4.975   3.145   8.020  0.0807 -0.4969  0.1779
    1WF      WF65711   8.912   9.647   9.546  0.0635  0.0843 -0.0746
    1WF      WF65712   6.009   3.802   0.901 -0.2459  0.1946  0.0387
    1WF      WF65713   3.185  20.732   2.264 -0.1598 -0.0393  0.4004
    1ION     NA65714  16.008   7.565   7.399 -0.0564 -0.1627  0.1620
    1ION     NA65715  22.646  13.514   6.287  0.1552  0.4555  0.2684
    1ION     NA65716  26.960  24.905   0.938 -0.0766 -0.0396 -0.3010
    1ION     NA65717  20.579  28.080   8.160  0.2799 -0.2159  0.1534
    1ION     NA65718  12.422  10.890   7.121 -0.2885  0.0474  0.3870
    1ION     NA65719   0.392   6.514   2.650 -0.0823  0.0531  0.0864
    1ION     NA65720  19.027  23.098   1.998  0.1876  0.3818 -0.0264
    1ION     NA65721   3.241   0.562   2.423 -0.2363 -0.0964  0.2744
    1ION     NA65722   8.380  13.696   6.599 -0.0411  0.0124  0.0038
    1ION     NA65723  19.660  18.256   3.160 -0.0977  0.2377 -0.0709
    1ION     NA65724  14.090   2.661   7.057 -0.3061 -0.2671 -0.0986
    1ION     NA65725   5.538   0.350   3.092 -0.2588  0.1710 -0.0106
    1ION     NA65726   0.360   8.226   5.866  0.1998  0.0625  0.2169
    1ION     NA65727  21.023  18.002   1.379  0.1397 -0.1248  0.0413
    1ION     NA65728  16.824  25.078   8.176 -0.2051  0.1097  0.1089
    1ION     NA65729  11.795  11.030   9.407 -0.0135 -0.2051  0.2560
    1ION     NA65730  10.052  27.465   7.628  0.0490  0.2060 -0.0661
    1ION     NA65731  14.255  24.865   2.417 -0.1647  0.1276 -0.0857
    1ION     NA65732  23.519  24.693   1.228 -0.1301  0.0584 -0.1057
    1ION     NA65733  12.642  14.596   2.429  0.0358  0.0966  0.1633
    1ION     NA65734  17.433  25.329   3.095 -0.2790 -0.0314 -0.2289
    1ION     NA65735  28.607  14.382   7.718 -0.0865 -0.1257 -0.0322
    1ION     NA65736  29.335  23.442   2.740  0.1622  0.0888  0.2329
    1ION     NA65737   2.477  17.752   7.231 -0.0318 -0.2237 -0.1878
    1ION     NA65738   9.222  12.739   0.271  0.2133  0.1299 -0.1040
    1ION     NA65739  24.468   6.366   7.259 -0.1671  0.1966 -0.0222
    1ION     NA65740   3.023  15.067   7.463  0.1245  0.1608  0.0379
    1ION     NA65741  17.102   6.305   3.860 -0.3578 -0.1370  0.0055
    1ION     NA65742  27.236   8.971   1.021 -0.1034  0.1896 -0.0654
    1ION     NA65743   8.248  23.419   5.705 -0.2015 -0.0012  0.1689
    1ION     NA65744  16.266  19.137   9.635  0.0211  0.1774 -0.1399
    1ION     NA65745  10.540   6.648   7.311 -0.3340 -0.0064 -0.0589
    1ION     NA65746  12.590   9.068   3.220  0.1572  0.1044 -0.4107
    1ION     NA65747  18.180  19.662   2.869  0.1013  0.0230  0.1358
    1ION     NA65748   1.033   3.858   7.253  0.3440  0.2645 -0.3825
    1ION     NA65749  26.802  19.400   8.136  0.1487  0.0981 -0.0499
    1ION     NA65750   3.130  17.846   0.663  0.0923  0.2623  0.3793
    1ION     NA65751  23.645  19.395   3.099 -0.4008 -0.1379 -0.5628
    1ION     NA65752  28.091   3.863   2.955 -0.4006  0.0843  0.0527
    1ION     NA65753  15.329  17.439   1.316 -0.2067  0.0733 -0.0319
    1ION     NA65754  14.297  14.708   6.919 -0.0846  0.1600  0.0358
    1ION     NA65755  29.238  22.123   7.059 -0.1958  0.1012 -0.3875
    1ION     NA65756  25.637  10.047   2.513  0.1356  0.1301 -0.0911
    1ION     NA65757  14.806  12.660   7.177 -0.0748  0.0018  0.1904
    1ION     NA65758   6.640  16.865   6.193 -0.0449  0.0361  0.1372
    1ION     NA65759  13.006  15.092   1.629 -0.0517 -0.0097 -0.2272
    1ION     NA65760   8.458   7.923   8.462 -0.2639 -0.0341  0.1293
    1ION     NA65761  17.730  15.906   2.666  0.2646  0.2675  0.2048
    1ION     NA65762   4.655   7.833   2.959 -0.0542 -0.0146  0.4486
    1ION     NA65763  20.585  10.641   0.465 -0.0311 -0.0267 -0.0689
    1ION     NA65764   8.680   3.236   7.025  0.2856 -0.1545 -0.2766
    1ION     NA65765  22.286  12.668   6.879  0.0544  0.0367  0.1917
    1ION     NA65766  14.639   9.572   2.070  0.0963  0.1592 -0.3259
    1ION     NA65767   0.711   9.046   7.943 -0.1884  0.0023  0.2007
    1ION     NA65768  17.353  15.938   1.784  0.1571  0.1299  0.0045
    1ION     NA65769  17.057  12.216   7.068  0.0482 -0.2367  0.0850
    1ION     NA65770   8.538   2.244   2.221  0.0834 -0.1939 -0.5215
    1ION     NA65771   1.196   5.512   2.288 -0.1209 -0.1970  0.0480
    1ION     NA65772   8.855  17.495   7.321 -0.1050  0.3661  0.1015
    1ION     NA65773   7.119  18.836   6.012  0.3898 -0.0751 -0.1992
    1ION     NA65774   5.210  10.685   0.674 -0.2330  0.1485  0.0645
    1ION     NA65775   5.179  23.637   6.828 -0.3385  0.0964 -0.1304
    1ION     NA65776   6.286  21.339   2.417  0.1713 -0.1132  0.4645
    1ION     NA65777   2.109  16.091   2.055  0.0327 -0.0269 -0.1612
    1ION     NA65778   0.844   9.743   7.324  0.0480  0.1807 -0.1051
    1ION     NA65779  21.197  22.740   7.373 -0.0264 -0.2292  0.2567
    1ION     NA65780  21.246  11.651   0.998 -0.1183  0.3307  0.1763
    1ION     NA65781  18.243  20.002   7.223  0.1103  0.0176  0.3233
    1ION     NA65782   5.090   7.611   6.250 -0.0814  0.1625 -0.2261
    1ION     NA65783   8.749  11.960   9.670 -0.2753 -0.0528  0.0906
    1ION     NA65784   3.038  21.681   6.031  0.2004 -0.1866  0.0414
    1ION     NA65785  11.984  26.006   9.087  0.0756 -0.0795  0.2152
    1ION     NA65786   6.114  20.811   5.896 -0.0039 -0.0284 -0.0027
    1ION     NA65787  20.122  20.331   7.697 -0.1861  0.1310 -0.3878
    1ION     NA65788  10.574  19.416   9.414 -0.0369  0.1436 -0.1245
    1ION     NA65789   8.281  20.038   7.709  0.0040  0.0397  0.0083
    1ION     NA65790  13.851  19.520   1.786  0.0746 -0.0551  0.1149
    1ION     NA65791   7.704  16.801   7.734 -0.0388  0.1997  0.3853
    1ION     NA65792  25.791  22.866   2.083 -0.1625 -0.0423 -0.1399
    1ION     NA65793  19.440  12.652   2.196  0.3115 -0.2846 -0.1360
    1ION     NA65794  23.908  12.324   7.758 -0.2609 -0.0120 -0.0440
    1ION     NA65795  25.114  22.675   3.479  0.0954  0.2692 -0.0074
    1ION     NA65796   8.873  15.738   7.639  0.1082  0.1317 -0.0837
    1ION     NA65797  15.098  11.646   8.174 -0.4801 -0.1465  0.2460
    1ION     NA65798  22.906   1.565   6.134  0.2199  0.0944  0.2487
    1ION     NA65799  26.740  26.964   7.241 -0.4164 -0.2526 -0.1283
    1ION     NA65800  25.031  23.668   9.604 -0.0200 -0.1338  0.0405
    1ION     NA65801  10.884   6.408   1.539  0.3778 -0.0007  0.2764
    1ION     NA65802  22.813   9.926   6.855  0.0451  0.0483  0.2488
    1ION     NA65803  25.519  17.011   6.269 -0.1438  0.1687  0.1410
    1ION     NA65804  18.472   5.348   6.631 -0.1034 -0.2463 -0.0578
    1ION     NA65805  11.968  13.890   6.996 -0.1476  0.1466 -0.0821
    1ION     NA65806  24.768  19.398   0.477 -0.1600  0.2260 -0.0457
    1ION     NA65807  19.505  13.072   8.197  0.2418  0.0868  0.1889
    1ION     NA65808  21.217  11.370   7.623  0.0647 -0.1735  0.0115
    1ION     NA65809  26.490  26.086   9.089 -0.2147 -0.4192 -0.0765
    1ION     NA65810  19.965  13.076   1.136  0.3121  0.0851  0.1680
    1ION     NA65811  29.192  28.953   7.680 -0.1494  0.2820  0.0657
    1ION     NA65812   7.600  26.271   8.127 -0.1695 -0.3414 -0.0434
    1ION     NA65813   1.009  11.312   7.309 -0.0533 -0.2375 -0.0353
    1ION     NA65814  17.975   3.879   1.486  0.0957 -0.1077 -0.1766
    1ION     NA65815   6.461   1.216   3.180  0.0546 -0.5381 -0.0078
    1ION     NA65816  20.040   3.163   8.283  0.2424  0.0477  0.0462
    1ION     NA65817  16.107  28.751   0.665 -0.0523 -0.0655  0.2762
    1ION     NA65818   9.149   9.269   0.221 -0.0229 -0.0629  0.0167
    1ION     NA65819  26.410  12.814   6.107  0.2853  0.1315 -0.0206
    1ION     NA65820  18.286   6.821   1.482  0.3069  0.1563 -0.2517
    1ION     NA65821  11.118   4.056   4.032 -0.2870  0.0606  0.1217
    1ION     NA65822  15.206  15.609   7.647  0.2390  0.1059 -0.1295
    1ION     NA65823   4.681  17.788   1.210  0.2705  0.1847 -0.2197
    1ION     NA65824   3.991  12.675   1.299 -0.3034  0.0256 -0.0963
    1ION     NA65825  10.466  25.218   0.950  0.1934  0.0215  0.1650
    1ION     NA65826   9.324  23.189   0.857  0.3067  0.0322  0.2905
    1ION     NA65827   6.431  25.771   2.573 -0.3323 -0.2842 -0.0239
    1ION     NA65828  17.490  19.903   3.223  0.3149  0.0303  0.1865
    1ION     NA65829  26.770  28.148   7.857 -0.1829 -0.0798 -0.2084
    1ION     NA65830  28.572   8.600   9.156 -0.2696 -0.0066 -0.0349
    1ION     NA65831  20.167  19.448   7.148  0.3886  0.0486 -0.1922
    1ION     NA65832  29.026  28.461   6.027 -0.0987 -0.0005 -0.4579
    1ION     NA65833  12.310   5.883   1.453  0.2342 -0.0923  0.0658
    1ION     NA65834  23.508  21.047   2.641 -0.0870 -0.2029  0.1228
    1ION     NA65835   1.823  16.204   0.133 -0.5126 -0.1764 -0.0188
    1ION     NA65836  24.245   6.710   0.913 -0.1979 -0.0411 -0.0276
    1ION     NA65837   1.155  13.592   8.486 -0.0500  0.3984  0.1966
    1ION     NA65838   0.190   0.727   0.788  0.2603  0.3140  0.0766
    1ION     NA65839  22.379  22.994   9.201 -0.0279 -0.2073 -0.1161
    1ION     NA65840   4.043  19.182   6.500 -0.1064 -0.1541 -0.2833
    1ION     NA65841   3.311   3.265   0.115 -0.1160  0.1886  0.3563
    1ION     NA65842  21.092  13.707   2.447  0.0406  0.3033  0.0054
    1ION     NA65843  24.634  12.153   1.782  0.2940 -0.0055  0.0108
    1ION     NA65844  20.955  27.357   2.241  0.0941  0.0124 -0.0516
    1ION     NA65845  25.533   9.477   2.736  0.3315 -0.1031  0.0326
    1ION     NA65846  12.137  18.250   6.921 -0.1212  0.0639  0.0986
    1ION     NA65847  10.605  12.645   0.902 -0.1802  0.0600 -0.0358
    1ION     NA65848  17.426  10.010   2.423  0.0539 -0.1954  0.0512
    1ION     NA65849  12.751   9.010   8.784  0.1746  0.3446 -0.1349
    1ION     NA65850  21.046   5.997   1.908  0.0362  0.0338  0.2202
    1ION     NA65851  25.846  16.273   7.621  0.0873  0.0934  0.1559
    1ION     NA65852  17.846  28.693   6.991 -0.0023  0.1361 -0.0774
    1ION     NA65853   4.219  25.732   1.320  0.1227 -0.1491  0.2018
    1ION     NA65854   9.132  23.213   7.611  0.0646 -0.0291 -0.0951
    1ION     NA65855   3.035  19.038   1.870  0.5384  0.2500  0.0868
    1ION     NA65856  12.903  13.469   0.326 -0.0384  0.0578 -0.0945
    1ION     NA65857  24.806   3.695   1.724 -0.2987  0.3739 -0.0065
    1ION     NA65858  11.402  24.355   2.319  0.3723 -0.2020 -0.0217
    1ION     NA65859  25.983   2.132   6.175  0.1079  0.2977 -0.1514
    1ION     NA65860  14.676  27.468   8.973  0.1799 -0.1204  0.0067
    1ION     NA65861  17.043  26.631   2.001  0.0155  0.0310 -0.2967
    1ION     NA65862   9.263  18.395   1.469  0.0742  0.0455  0.1607
    1ION     NA65863  13.607  16.547   1.430 -0.1692  0.0293  0.0207
    1ION     NA65864  14.875  23.050   6.712 -0.1271 -0.0025 -0.1828
    1ION     NA65865  11.788  26.730   7.637  0.0723 -0.2454  0.0203
    1ION     NA65866   5.466  15.951   6.267  0.1243  0.1884  0.1300
    1ION     NA65867  22.510   7.231   8.978 -0.1708  0.1510  0.0622
    1ION     NA65868   1.754   4.503   9.413  0.0918 -0.0288 -0.0985
    1ION     NA65869  27.757   8.006   8.278  0.0941 -0.0577 -0.0277
    1ION     NA65870  13.314   1.700   1.657  0.0442  0.1228  0.3008
    1ION     NA65871  22.190  17.370   8.192 -0.1576  0.1582  0.0432
    1ION     NA65872  15.185   8.787   3.342  0.2108 -0.0276  0.2739
    1ION     NA65873  20.652   2.790   8.088 -0.0521  0.2746 -0.1598
    1ION     NA65874  21.363  15.728   2.385 -0.1868  0.0901 -0.0761
    1ION     NA65875  19.533   2.720   6.697 -0.2255 -0.2395  0.2168
    1ION     NA65876   9.611   7.807   2.573 -0.3027 -0.2549  0.0623
    1ION     NA65877   0.359  22.694   6.436  0.0222 -0.1876  0.2539
    1ION     NA65878  28.783   5.931   2.145  0.0275 -0.0367  0.1040
    1ION     NA65879  21.266  17.013   8.510  0.0808  0.1844  0.0839
    1ION     NA65880  12.788   3.310   1.195  0.0780 -0.0157 -0.1113
    1ION     NA65881  14.669  17.351   7.130 -0.0698 -0.1157  0.2132
    1ION     NA65882  28.407  28.645   7.506 -0.1240  0.3242  0.0184
    1ION     NA65883  23.062   6.689   0.977  0.0629  0.2286  0.1293
    1ION     NA65884  28.275   1.668   6.899  0.0338  0.2515 -0.0684
    1ION     NA65885  15.704  27.486   7.353  0.2200 -0.1594  0.2112
    1ION     NA65886   4.447   0.102   2.929  0.0444 -0.4465  0.1279
    1ION     NA65887  12.900   7.037   3.528 -0.2085 -0.4485  0.1568
    1ION     NA65888   8.488  24.470   9.075  0.0458  0.1081 -0.2037
    1ION     NA65889  21.685  10.180   1.501  0.2358 -0.2768  0.0759
    1ION     NA65890  28.394  17.467   9.581 -0.0729 -0.0946 -0.1610
    1ION     NA65891  29.106  28.097   3.294  0.2568  0.0625  0.2547
    1ION     NA65892  20.698  14.621   2.275  0.2265  0.0480  0.1246
    1ION     NA65893  14.857  20.054   7.314  0.1552  0.1412  0.0790
    1ION     NA65894   5.452  21.084   1.939 -0.1279  0.1067 -0.1002
    1ION     NA65895  25.766  10.364   1.270  0.2899 -0.2252  0.1135
    1ION     NA65896  20.861  13.786   9.021  0.2279 -0.0096 -0.0153
    1ION     NA65897  25.539  14.190   9.233  0.0020  0.1813 -0.0784
    1ION     NA65898  22.001  11.128   0.696 -0.1452  0.0050 -0.0180
    1ION     NA65899  18.429  16.799   6.934  0.2020  0.1024  0.2074
    1ION     NA65900  17.986  23.495   8.109 -0.0245 -0.0942  0.1390
    1ION     NA65901  28.088   5.275   8.270  0.0410 -0.0410  0.1825
    1ION     NA65902  23.553   9.185   7.185  0.0696  0.2869 -0.2893
    1ION     NA65903  14.868  16.566   8.735 -0.1385 -0.1220  0.1831
    1ION     NA65904  21.043   4.250   1.310 -0.0424 -0.0927 -0.0150
    1ION     NA65905  10.443  26.187   3.010  0.2835  0.1136 -0.2240
    1ION     NA65906  18.294  13.945   2.556  0.1669 -0.0001  0.0368
    1ION     NA65907  22.126  25.849   3.067  0.4308  0.0750 -0.2012
    1ION     NA65908  22.082  11.119   8.680 -0.2264 -0.1748 -0.2719
    1ION     NA65909  22.127   9.024   6.767  0.2715 -0.2819  0.0560
    1ION     NA65910   7.656   1.576   0.153  0.0310  0.0963  0.0808
    1ION     NA65911  25.227   5.888   8.002  0.2749 -0.1081 -0.1797
    1ION     NA65912   5.932   3.713   0.299  0.1355 -0.3285 -0.1819
    1ION     NA65913   1.664  18.960   5.792 -0.0634  0.1136 -0.2243
    1ION     NA65914   4.978  15.375   2.629  0.1848  0.1094 -0.3215
    1ION     NA65915  22.739   8.354   9.222 -0.1421 -0.1430 -0.3441
    1ION     NA65916  14.134  27.922   2.260 -0.0561  0.1939  0.0421
    1ION     NA65917  16.679  10.780   6.842  0.0339  0.3163 -0.2169
    1ION     NA65918  19.859  14.209   6.889 -0.0947  0.1622  0.2368
    1ION     NA65919  20.566  29.229   3.330 -0.4495 -0.3952  0.0667
    1ION     NA65920  23.771  25.262   3.279  0.0219 -0.0126  0.1257
    1ION     NA65921   5.904  14.323   1.833 -0.2480 -0.1969  0.2806
    1ION     NA65922  24.725  22.561   7.324 -0.2472  0.2931  0.8015
    1ION     NA65923   0.906  15.625   6.103  0.0509 -0.0144 -0.2105
    1ION     NA65924  15.630  23.440   9.036  0.0752  0.0930  0.0592
    1ION     NA65925  13.535  17.178   2.038 -0.4133  0.0728  0.2093
    1ION     NA65926   3.476  17.883   8.552  0.1166 -0.3088  0.0521
    1ION     NA65927   0.644   4.301   2.623 -0.0097  0.0374  0.2559
    1ION     NA65928  27.790   1.697   3.287 -0.2742 -0.0328  0.0299
    1ION     NA65929   7.782   9.210   1.222  0.0545  0.3016 -0.0147
    1ION     NA65930  15.878  10.124   1.108  0.2726 -0.0663  0.2094
    1ION     NA65931  11.898  23.536   2.248 -0.1092 -0.1085 -0.0080
    1ION     NA65932  20.426  22.130   2.638  0.1052  0.0060 -0.0858
    1ION     NA65933  27.465   2.015   0.207  0.0108  0.1200  0.2458
    1ION     NA65934  24.526  16.168   1.150 -0.0146 -0.0080  0.1113
    1ION     NA65935  11.937  16.109   7.891 -0.3169 -0.3051 -0.2796
    1ION     NA65936  17.126  16.509   7.580 -0.0234  0.0562 -0.0690
    1ION     NA65937   9.629  16.002   1.294 -0.3818  0.0451 -0.1787
    1ION     NA65938  25.196  15.895   2.328 -0.1126  0.2744 -0.1662
    1ION     NA65939  16.636   3.559   3.084 -0.0092 -0.2858  0.3626
    1ION     NA65940  11.836   1.204   3.129 -0.0779 -0.2004  0.0015
    1ION     NA65941   1.937   9.285   7.795  0.2165  0.3303  0.0552
    1ION     NA65942  24.004   9.985   9.625 -0.7176 -0.0695 -0.3641
    1ION     NA65943   6.334  26.361   3.155 -0.4725 -0.0187 -0.1846
    1ION     NA65944  13.664   8.913   8.748  0.0553  0.1436  0.0944
    1ION     NA65945   0.795   3.506   8.219  0.0897  0.2520  0.0507
    1ION     NA65946  20.010  18.023   1.641 -0.1149  0.2138  0.0608
    1ION     NA65947  28.731  22.433   8.733  0.1047  0.2551  0.0942
    1ION     NA65948  19.146   5.851   2.575  0.0398 -0.1134 -0.0578
    1ION     NA65949   4.034  22.696   6.174  0.2667 -0.2686 -0.1780
    1ION     NA65950  24.965   7.480   6.502  0.3123  0.2286 -0.0861
    1ION     NA65951   2.678  10.393   9.045  0.0023  0.2933  0.2094
    1ION     NA65952   4.835  19.441   2.307 -0.3355  0.1818 -0.0162
    1ION     NA65953  26.954   7.917   6.526 -0.1939  0.0238  0.1822
    1ION     NA65954  25.161  16.870   2.199 -0.1838 -0.0197  0.0319
    1ION     NA65955  15.187   6.174   8.107  0.1180  0.0199 -0.1345
    1ION     NA65956   1.738  28.091   6.388 -0.1291  0.0581 -0.0391
    1ION     NA65957  11.196   5.178   2.574 -0.2404 -0.0198 -0.1897
    1ION     NA65958  11.828   2.956   7.548 -0.0364 -0.3411  0.1510
    1ION     NA65959   1.669  16.394   6.123 -0.0039  0.1975  0.2197
    1ION     NA65960   5.167   9.874   7.974  0.0167 -0.1032  0.0588
    1ION     NA65961  27.549   0.045   8.251  0.1885  0.0063  0.1128
    1ION     NA65962  18.857  29.101   3.226 -0.3107  0.1525 -0.2149
    1ION     NA65963   2.960  13.203   0.639  0.1158 -0.1797 -0.4484
    1ION     NA65964   9.526  10.595   0.210  0.1743 -0.0230 -0.0720
    1ION     NA65965   2.660  22.387   8.993 -0.1163  0.0654  0.2409
    1ION     NA65966   4.705  13.043   6.785  0.0221 -0.0259 -0.4193
    1ION     NA65967   0.782  22.880   8.279  0.0423 -0.0566  0.1345
    1ION     NA65968  25.377   6.353   8.847  0.0343 -0.0265 -0.0008
    1ION     NA65969   0.526   6.336   6.033  0.1739 -0.1383 -0.0036
    1ION     NA65970  25.916   6.698   8.063 -0.3017 -0.2482  0.2079
    1ION     NA65971  14.108  24.590   6.842  0.1516 -0.1229 -0.0443
    1ION     NA65972   8.369  19.864   2.926  0.2204  0.0330 -0.5224
    1ION     NA65973  21.690   2.245   7.544 -0.1243  0.1587  0.1538
    1ION     NA65974  10.983  24.614   8.881  0.0258 -0.4005  0.1661
    1ION     NA65975   9.154  25.321   7.341 -0.1457  0.1939  0.2365
    1ION     NA65976  11.214  25.060   7.946 -0.2708  0.0892  0.1464
    1ION     NA65977   5.984  13.580   1.176 -0.0522  0.2327 -0.1565
    1ION     NA65978   2.965  18.641   9.176 -0.0198 -0.0112  0.0324
    1ION     NA65979  17.044   2.980   9.308 -0.5021  0.3082  0.1389
    1ION     NA65980   5.095   0.963   7.383 -0.0803 -0.3180  0.0353
    1ION     NA65981  13.943   2.567   8.118 -0.0771  0.1038 -0.1447
    1ION     NA65982   7.608  19.952   8.421  0.1970 -0.0990  0.1550
    1ION     NA65983  11.255  14.028   0.850 -0.0204  0.0818 -0.3462
    1ION     NA65984   8.416  29.288   1.240 -0.0522  0.1503 -0.1697
    1ION     NA65985  19.111  13.906   6.695  0.3163 -0.0607 -0.0689
    1ION     NA65986  25.887  29.358   2.813  0.1757  0.2043 -0.2221
    1ION     NA65987  18.624  16.173   6.971  0.1290  0.2801 -0.2003
    1ION     NA65988   4.818  10.185   3.216 -0.0103  0.0548  0.2580
    1ION     NA65989   0.830   2.761   7.793 -0.4615  0.3494 -0.1217
    1ION     NA65990  14.976  13.569   7.075 -0.1563  0.2876 -0.0720
    1ION     NA65991   2.053  18.300   7.733 -0.1893  0.2103  0.1808
    1ION     NA65992  20.315   9.132   1.436  0.0032  0.2825  0.2995
    1ION     NA65993   1.168  29.345   7.798 -0.2111 -0.1998  0.0050
    1ION     NA65994   7.230   8.963   7.112 -0.0717  0.1366 -0.0070
    1ION     NA65995   0.174   4.806   0.370  0.1717 -0.3268  0.0641
    1ION     NA65996  13.545  15.207   1.856 -0.0074 -0.0562 -0.1005
    1ION     NA65997  28.062  21.641   8.635 -0.0319 -0.1013 -0.2853
    1ION     NA65998   0.182  14.688   7.045 -0.0597 -0.1675  0.1284
    1ION     NA65999  22.856   0.634   2.051  0.1060 -0.3418 -0.2565
    1ION     NA66000  26.836   6.674   1.015  0.0963  0.1183 -0.1109
    1ION     NA66001  24.354  25.505   2.054 -0.0475  0.0166 -0.2736
    1ION     NA66002   6.322  18.024   0.899 -0.1404 -0.0113 -0.1205
    1ION     NA66003   7.396   6.724   1.378  0.3733 -0.2737 -0.1324
    1ION     NA66004  26.247  12.979   7.199 -0.0277 -0.1747 -0.2754
    1ION     NA66005  12.916  26.533   0.230  0.0444  0.1114 -0.0197
    1ION     NA66006  15.638   7.824   1.893  0.5607  0.0126 -0.4285
    1ION     NA66007  29.203   1.130   1.876 -0.0767  0.0593 -0.4340
    1ION     NA66008  23.395   9.089   0.963 -0.4620  0.2052  0.1758
    1ION     NA66009   1.518   5.325   0.020 -0.0211 -0.2986  0.0331
    1ION     NA66010  28.358   7.310   7.231 -0.2042  0.0008  0.1333
    1ION     NA66011   2.915   7.904   9.471  0.0788  0.3719  0.0557
    1ION     NA66012   7.212   0.014   2.819 -0.1732  0.2216 -0.0401
    1ION     NA66013  28.623  17.066   1.801 -0.0930  0.0317  0.0151
    1ION     NA66014  27.403  14.547   0.644  0.3229 -0.0561 -0.1612
    1ION     NA66015   7.535  23.043   7.996 -0.0116 -0.0271  0.0667
    1ION     NA66016  10.030   6.020   0.121 -0.3102 -0.0776 -0.0141
    1ION     NA66017   1.896  24.662   7.270 -0.0371 -0.0930  0.1287
    1ION     NA66018   7.908   1.081   8.950  0.0981 -0.2798  0.0806
    1ION     NA66019  16.707   4.687   8.318 -0.1860  0.0562 -0.0556
    1ION     NA66020  28.635  16.922   2.597  0.0262 -0.3096 -0.0500
    1ION     NA66021  23.782  23.397   2.214  0.0869 -0.0472  0.1281
    1ION     NA66022   0.992  26.375   0.112  0.0553 -0.2802 -0.0641
    1ION     NA66023  26.269  14.329   0.685 -0.2442 -0.0746  0.1519
    1ION     NA66024  24.613  14.267   8.046  0.0072  0.3400 -0.2701
    1ION     NA66025  28.293  17.223   6.115  0.2223 -0.3795  0.0521
    1ION     NA66026   3.872   3.722   8.138  0.0122  0.3768 -0.1365
    1ION     NA66027  21.372  28.757   2.117 -0.2842 -0.2902  0.0909
    1ION     NA66028  24.922  19.978   9.330 -0.0276  0.1653  0.0636
    1ION     NA66029  15.811  25.563   2.359  0.2592 -0.1932 -0.1058
    1ION     NA66030   3.605   6.955   8.115  0.0345 -0.5173 -0.1346
    1ION     NA66031  15.380  20.906   8.205 -0.2240  0.5748  0.1226
    1ION     NA66032  14.243  19.622   0.604 -0.2976 -0.1588 -0.0567
    1ION     NA66033  19.770  10.805   6.868 -0.1649  0.2131 -0.2122
    1ION     NA66034   7.937   0.313   8.454 -0.1400 -0.1839  0.0720
    1ION     NA66035   2.375  15.516   8.061 -0.4149 -0.1393 -0.1442
    1ION     NA66036  12.728   3.056   7.601 -0.2289 -0.1028  0.0443
    1ION     NA66037  17.516  18.540   1.675 -0.0876  0.0167 -0.1836
    1ION     NA66038   0.965  28.628   6.498  0.1282 -0.1959 -0.1341
    1ION     NA66039  14.772  16.065   2.695  0.0031 -0.1413 -0.3766
    1ION     NA66040   7.662  23.816   0.495  0.0031  0.1044 -0.2832
    1ION     NA66041  21.871  16.153   7.829 -0.0410  0.0788  0.4130
    1ION     NA66042   5.428  20.941   8.090  0.1251 -0.0850 -0.1227
    1ION     NA66043  22.466   4.798   0.359 -0.0783  0.1243 -0.1419
    1ION     NA66044  13.298  20.989   1.404  0.2683  0.1961  0.0138
    1ION     NA66045  10.729   9.143   3.341 -0.2524  0.1503 -0.1200
    1ION     NA66046   4.537  28.860   0.270  0.1793 -0.0606 -0.0144
    1ION     NA66047   8.216  14.731   1.275 -0.0803  0.0111 -0.1657
    1ION     NA66048  22.072  24.884   7.699 -0.1898 -0.3187 -0.2079
    1ION     NA66049  23.819   3.566   5.726  0.1258 -0.1462  0.7957
    1ION     NA66050   9.467  23.397   8.680  0.0109  0.2435 -0.1919
    1ION     NA66051  13.096   1.298   4.373  0.1030 -0.1443 -0.0186
    1ION     NA66052  25.074   1.770   6.313 -0.2164  0.0485  0.1170
    1ION     NA66053   0.637  25.856   2.829 -0.1576  0.3450 -0.0054
    1ION     NA66054  23.682  21.468   0.799  0.0869  0.0369 -0.2908
    1ION     NA66055  16.724  14.765   7.379 -0.0246 -0.1173  0.1149
    1ION     NA66056   7.225  24.604   2.768  0.1092  0.0432  0.0219
    1ION     NA66057   2.742  26.193   8.610  0.1032  0.3057  0.0678
    1ION     NA66058   6.083   6.267   8.903 -0.0224  0.0037  0.0298
    1ION     NA66059   4.502  23.312   8.476 -0.1434 -0.1201 -0.0172
    1ION     NA66060  15.154  14.454   8.646  0.1137 -0.2092 -0.0947
    1ION     NA66061  28.536  25.098   2.764  0.2932  0.0429 -0.0263
    1ION     NA66062   6.828  21.165   5.656  0.1698  0.2274  0.1962
    1ION     NA66063  12.039   8.292   7.560 -0.0362  0.0348 -0.2924
    1ION     NA66064  23.556  27.934   8.739 -0.1032 -0.2350  0.3316
    1ION     NA66065  23.420  10.610   2.815  0.1357 -0.1063  0.0198
    1ION     NA66066  23.804  26.317   7.049  0.4336  0.0933 -0.2899
    1ION     NA66067  23.777  12.672   5.824 -0.3396  0.1661  0.0444
    1ION     NA66068   2.568   3.135   2.385  0.0695  0.0529 -0.2513
    1ION     NA66069  17.371  24.896   9.347 -0.0154  0.0176  0.2428
    1ION     NA66070  15.220  19.684   8.138 -0.1475 -0.1012  0.0653
    1ION     NA66071   4.694  28.984   9.077 -0.3775 -0.4446  0.0881
    1ION     NA66072  11.878  27.939   8.584 -0.2812 -0.0265  0.0736
    1ION     NA66073   0.043  21.845   2.332 -0.1062 -0.1810  0.1186
    1ION     NA66074  14.269  25.176   7.142 -0.1319 -0.2412 -0.1218
    1ION     NA66075  18.319   2.501   2.977  0.0174  0.0808 -0.1932
    1ION     NA66076  14.898  16.170   1.143  0.0554  0.0598  0.0755
    1ION     NA66077   9.396   2.762   3.256  0.1814  0.0278  0.0504
    1ION     NA66078  26.260  29.033   2.757 -0.2222 -0.1760 -0.2342
    1ION     NA66079  16.292  17.017   8.687  0.0018  0.1351 -0.0606
    1ION     NA66080  28.257  17.848   8.256  0.4057  0.0293  0.0286
    1ION     NA66081   4.268   8.090   2.037 -0.1712 -0.0365 -0.3570
    1ION     NA66082  20.107  24.713   0.658  0.0796 -0.1332  0.0473
    1ION     NA66083  24.392   9.308   9.281 -0.2696 -0.1766 -0.0203
    1ION     NA66084  23.651  13.002   2.089 -0.1667 -0.0393  0.1108
    1ION     NA66085  19.258   1.162   1.857 -0.0037  0.1143 -0.1650
    1ION     NA66086  25.203   7.420   2.287 -0.2595 -0.1287 -0.0857
    1ION     NA66087  14.281  11.933   7.266  0.0509  0.1681  0.0243
    1ION     NA66088  18.403  18.232   9.286 -0.1663 -0.1025 -0.0277
    1ION     NA66089  10.043  19.306   6.323 -0.2233 -0.2619  0.1537
    1ION     NA66090  24.615  26.819   8.598  0.1299 -0.0251  0.0457
    1ION     NA66091   0.265  21.994   0.599 -0.0419 -0.1894  0.2596
    1ION     NA66092  24.695  15.764   2.375 -0.2998  0.0762  0.1170
    1ION     NA66093  25.748   0.515   2.013  0.0346  0.0296 -0.0163
    1ION     NA66094  23.063  18.280   0.006 -0.0169 -0.2450  0.1416
    1ION     NA66095  19.933  19.570   1.340  0.0236  0.2870 -0.1890
    1ION     NA66096   5.443   6.307   6.072 -0.0562 -0.2273 -0.1472
    1ION     NA66097  19.022   7.210   7.064  0.0755  0.0593 -0.2329
    1ION     NA66098   5.246   0.093   2.273  0.0368  0.0529 -0.0831
    1ION     NA66099  16.637  13.354   7.918 -0.2008  0.3055 -0.2701
    1ION     NA66100  25.553  21.414   9.220  0.3248 -0.2725  0.0522
    1ION     NA66101   8.659  18.910   9.505 -0.1118 -0.3503  0.0406
    1ION     NA66102   5.470  18.646   0.211 -0.0891  0.1543 -0.0317
    1ION     NA66103  14.814  10.046   9.398 -0.0025  0.2776  0.1275
    1ION     NA66104  26.135  29.336   8.238  0.4433  0.1652  0.1598
    1ION     NA66105  19.944  16.689   9.473  0.0418 -0.1154 -0.0649
    1ION     NA66106  12.902  18.621   2.668  0.2802  0.2782 -0.0715
    1ION     NA66107   2.898  14.894   2.238  0.1289  0.2740  0.0753
    1ION     NA66108  27.234  10.781   8.081 -0.3512 -0.1541 -0.0949
    1ION     NA66109  21.055   9.605   1.964  0.1873 -0.2837  0.0704
    1ION     NA66110  18.720  22.931   8.388 -0.0146  0.1916 -0.1621
    1ION     NA66111  13.118  28.199   8.043 -0.1690  0.0319 -0.1331
    1ION     NA66112   7.091   5.771   3.483 -0.4303 -0.1226 -0.0897
    1ION     NA66113   7.746  15.569   2.634  0.1424 -0.1385  0.2078
    1ION     NA66114   1.193   8.932   6.042  0.1920 -0.0690  0.0375
    1ION     NA66115  16.006   4.993   1.287  0.0852  0.2707 -0.1276
    1ION     NA66116   6.469  22.889   9.255  0.1373 -0.0028  0.2265
    1ION     NA66117  14.896  12.079   0.261 -0.0355  0.0453 -0.0377
    1ION     NA66118  22.944  27.667   6.183 -0.2858  0.1873  0.0901
    1ION     NA66119  19.275  20.701   3.296 -0.0488 -0.2861 -0.0733
    1ION     NA66120  11.905  14.792   2.761 -0.0799 -0.1309  0.0882
    1ION     NA66121  29.055  15.506   0.669  0.0858  0.1776 -0.0496
    1ION     NA66122   0.213  28.652   8.520 -0.2110  0.0215 -0.1316
    1ION     NA66123  11.952  19.464   7.746  0.1119 -0.0970  0.0712
    1ION     NA66124  10.881  21.820   6.222 -0.0063  0.3052  0.1164
    1ION     NA66125   2.180  11.279   6.111  0.0994 -0.2199 -0.0340
    1ION     NA66126  25.936  22.729   6.671  0.0003 -0.0224 -0.3084
    1ION     NA66127  28.930  17.143   0.529 -0.2191  0.0084  0.3412
    1ION     NA66128  17.581  28.889   0.178  0.0801 -0.0412  0.0840
    1ION     NA66129  28.575  27.824   1.808 -0.3740 -0.0058 -0.0985
    1ION     NA66130   4.220   1.664   0.772 -0.1571 -0.0390  0.3322
    1ION     NA66131  26.225  11.710   9.475 -0.0525  0.1951  0.3053
    1ION     NA66132   3.601  10.216   7.933  0.3601 -0.1977 -0.0423
    1ION     NA66133  13.726  11.299   7.387  0.3900  0.4468  0.3331
    1ION     NA66134  14.458  17.901   0.613  0.1462 -0.0660 -0.2681
    1ION     NA66135  18.820  15.675   8.473  0.1763  0.0874 -0.0934
    1ION     CL66136  25.152   9.347   2.426  0.0470 -0.0933 -0.0637
    1ION     CL66137  11.670   7.971   0.484  0.2441 -0.2420 -0.1750
    1ION     CL66138   5.913  14.002   1.446  0.2894 -0.1809  0.3074
    1ION     CL66139  11.094  12.118   7.678  0.2019 -0.0391 -0.0332
    1ION     CL66140  18.914  20.835   9.403  0.3200  0.2232  0.3802
    1ION     CL66141   1.102   4.745   8.606 -0.0619  0.1215  0.0616
    1ION     CL66142  10.015  18.429   1.489 -0.0775  0.3362  0.2072
    1ION     CL66143   0.509  10.549   1.824 -0.1432  0.1794 -0.0820
    1ION     CL66144   1.155   6.974   7.410  0.2101  0.0396  0.1615
    1ION     CL66145  19.744  26.946   8.931  0.0809 -0.4117 -0.1122
    1ION     CL66146  22.613  11.295   8.405 -0.2212 -0.0640  0.2358
    1ION     CL66147  10.058   2.576   8.286  0.1408  0.1459 -0.0726
    1ION     CL66148   5.968  18.004   1.254 -0.1190 -0.0461 -0.1204
    1ION     CL66149   3.023  14.579   1.873  0.0159  0.2228  0.1030
    1ION     CL66150  24.054  25.688   2.440 -0.1619 -0.2645  0.0506
    1ION     CL66151   3.135  18.704   7.273  0.0466  0.1461 -0.2727
    1ION     CL66152   3.973  16.053   7.197  0.1051 -0.0266  0.1154
    1ION     CL66153  24.797   2.001   6.711  0.0956 -0.0172 -0.0523
    1ION     CL66154   8.722  27.933   1.820 -0.0226  0.1780  0.1664
    1ION     CL66155  24.454  26.950   2.302 -0.1222  0.1618  0.5509
    1ION     CL66156  28.060   4.042   7.006 -0.0870 -0.3963 -0.1098
    1ION     CL66157  20.314   0.980   6.953  0.0533  0.2801  0.0388
    1ION     CL66158   1.129  16.677   7.329 -0.0426  0.0049  0.0808
    1ION     CL66159   5.339  22.847   6.640 -0.1798  0.0285  0.1618
    1ION     CL66160  27.815   8.180   7.715  0.0533  0.0885 -0.0151
    1ION     CL66161  17.433   6.097   7.617 -0.1315  0.0076  0.1741
    1ION     CL66162  27.698  27.912   7.568 -0.0236 -0.2620  0.0382
    1ION     CL66163  28.818  17.596   0.164 -0.2112  0.0178  0.0971
    1ION     CL66164  22.781   6.786   8.440 -0.5170  0.0994  0.0498
    1ION     CL66165  16.577   1.329   9.286  0.0738 -0.0258 -0.2382
    1ION     CL66166  25.178  22.138   7.313 -0.2681  0.0175 -0.1073
    1ION     CL66167   7.917   0.012   1.415 -0.2972 -0.2155 -0.0248
    1ION     CL66168  18.480  23.383   8.279  0.1390 -0.0570 -0.1607
    1ION     CL66169   6.665  14.709   1.857 -0.3550 -0.0941 -0.1150
    1ION     CL66170   1.982  18.981   1.741 -0.3671  0.0984 -0.1691
    1ION     CL66171   8.754   4.427   2.508 -0.0262  0.0460  0.0410
    1ION     CL66172   5.026  18.020   0.967  0.2010  0.0459 -0.0289
    1ION     CL66173   4.122  25.471   2.282  0.2893  0.1400 -0.2617
    1ION     CL66174  16.813  21.189   2.579  0.0624  0.0954 -0.2005
    1ION     CL66175  17.334  11.173   8.448 -0.0261  0.0445  0.1532
    1ION     CL66176   8.211   6.228   2.533  0.3298  0.0445 -0.0966
    1ION     CL66177  26.121  15.332   9.055 -0.4615 -0.0076 -0.1492
    1ION     CL66178  17.113  14.758   7.785 -0.0029  0.2143 -0.0792
    1ION     CL66179  29.119  22.274   6.573 -0.3484  0.1323 -0.0075
    1ION     CL66180  24.671  15.846   1.488 -0.1815  0.0439  0.0145
    1ION     CL66181  22.967  21.446   0.269 -0.2975 -0.4167  0.3415
    1ION     CL66182  24.258  11.856   1.816 -0.0620  0.0463 -0.0986
    1ION     CL66183   8.359   0.570   1.944  0.1884 -0.0327  0.2194
    1ION     CL66184  27.046   8.457   1.474 -0.0728 -0.1095  0.3863
    1ION     CL66185  26.619  24.739   1.310 -0.0771 -0.1393 -0.0624
    1ION     CL66186  24.425  23.651   0.031 -0.0232  0.0376  0.0663
    1ION     CL66187   6.738  14.768   9.340  0.2415  0.2068  0.0133
    1ION     CL66188   7.594   2.940   8.274 -0.1351 -0.1219 -0.1458
    1ION     CL66189  15.725  23.199   7.713 -0.0341  0.0487 -0.0402
    1ION     CL66190   9.196  26.633   7.541 -0.1522 -0.1887 -0.1786
    1ION     CL66191  21.251   1.867   1.414  0.6454  0.1232  0.0048
    1ION     CL66192   4.642  23.431   6.840  0.4542  0.1087  0.0112
    1ION     CL66193  17.678  22.995   8.307  0.0200 -0.2207 -0.5640
    1ION     CL66194  21.195  16.790   7.809  0.2770 -0.1555  0.2522
    1ION     CL66195   4.333  28.799   7.147  0.3501  0.0996  0.0159
    1ION     CL66196   4.774  18.688   6.676  0.0492  0.0565  0.0780
    1ION     CL66197   2.964   0.896   2.142 -0.0543  0.2876  0.2404
    1ION     CL66198  20.983   3.949   8.826  0.1209 -0.0845 -0.2371
    1ION     CL66199  11.892   5.820   7.807 -0.0119 -0.2242  0.2619
    1ION     CL66200  27.320  26.228   0.173  0.1188  0.3423 -0.2268
    1ION     CL66201  28.923  28.777   6.857 -0.1627 -0.3146 -0.0874
    1ION     CL66202  20.935  11.226   7.215 -0.1536  0.0452  0.1233
    1ION     CL66203  12.236  10.748   9.563  0.1657  0.0267 -0.0622
    1ION     CL66204   1.874   5.844   6.128  0.0318  0.3238  0.1154
    1ION     CL66205   1.779   9.618   1.428 -0.1442 -0.0159  0.1872
    1ION     CL66206  16.868  17.032   8.359 -0.0189 -0.1226  0.0725
    1ION     CL66207   5.287   4.246   8.000 -0.0902 -0.3464  0.2151
    1ION     CL66208   1.225   2.150   1.449 -0.2072 -0.2484 -0.1275
    1ION     CL66209   6.417   3.701   2.732  0.0512 -0.3338  0.0272
    1ION     CL66210  24.332   8.406   9.341  0.1201  0.1293  0.2529
    1ION     CL66211   6.238  27.653   8.379  0.1252  0.1785 -0.1302
    1ION     CL66212   5.922  15.113   1.312  0.1606  0.1882  0.0448
    1ION     CL66213  12.104  13.442   7.979 -0.1788  0.4042  0.2969
    1ION     CL66214  20.278  27.861   2.021 -0.1323 -0.2870 -0.0230
    1ION     CL66215  12.711  24.102   2.738 -0.4504  0.0997  0.0947
    1ION     CL66216  20.665  22.957   0.894 -0.0364 -0.1303  0.0019
    1ION     CL66217   1.719   5.309   7.898  0.0740 -0.3124  0.0027
    1ION     CL66218  13.253  18.777   0.097  0.0650  0.1326  0.1958
    1ION     CL66219   8.031  24.137   0.256  0.0382  0.1622 -0.0199
    1ION     CL66220   6.669  21.769   1.549 -0.3161 -0.0456  0.1842
    1ION     CL66221  13.995   4.587   9.638 -0.2304  0.1596 -0.2914
    1ION     CL66222  23.863   6.785   0.564 -0.1125 -0.0317 -0.0842
    1ION     CL66223  16.122   4.488   1.016 -0.1721  0.0182  0.1023
    1ION     CL66224  25.834  17.454   1.381 -0.2372 -0.0367  0.0174
    1ION     CL66225   7.629   1.033   0.811 -0.0035  0.1427  0.2376
    1ION     CL66226  26.649  26.917   7.776 -0.1195  0.0601  0.0665
    1ION     CL66227  20.768   8.906   1.476  0.1954 -0.0554 -0.1938
    1ION     CL66228   6.133  25.039   9.542  0.1479  0.4334  0.1119
    1ION     CL66229  16.222  14.784   7.266  0.1142  0.2930  0.3836
    1ION     CL66230  11.062  24.106   2.018  0.3854 -0.2022 -0.0754
    1ION     CL66231   2.268  22.254   1.358  0.1282  0.1786  0.1403
    1ION     CL66232   1.942  19.380   9.009  0.2671 -0.2417  0.1087
    1ION     CL66233  15.865  22.885   9.174 -0.1869 -0.2357 -0.0083
    1ION     CL66234  26.039  18.472   0.786 -0.0677 -0.0109 -0.1057
    1ION     CL66235   1.192  11.305   1.443 -0.1042  0.0599 -0.5764
    1ION     CL66236   0.217  22.179   0.132 -0.0336 -0.2348  0.0337
    1ION     CL66237  11.564  15.748   6.924  0.0076  0.2267  0.1550
    1ION     CL66238  24.253  16.143   6.634 -0.0092  0.2710  0.0702
    1ION     CL66239  16.421  28.917   0.239 -0.0808  0.2707 -0.3109
    1ION     CL66240   9.215  20.797   0.753  0.1762 -0.0898 -0.0241
    1ION     CL66241  17.833  23.515   7.646  0.1841 -0.2087 -0.1336
    1ION     CL66242   6.496   5.016   8.256 -0.2824 -0.0375 -0.2301
    1ION     CL66243  24.961  17.902   9.671  0.0726  0.1602 -0.1933
    1ION     CL66244   7.521  22.550   6.725 -0.0301  0.3976  0.1840
    1ION     CL66245   3.489   0.341   8.577 -0.2668  0.0282  0.2019
    1ION     CL66246   8.291   0.120   7.638  0.3406  0.4041  0.1256
    1ION     CL66247  12.960  10.245   3.089  0.2481 -0.0685 -0.1754
    1ION     CL66248   8.844  12.394   0.468 -0.1141 -0.3915 -0.0129
    1ION     CL66249   5.838  21.213   2.275 -0.2405  0.1082  0.0137
    1ION     CL66250  29.351   1.678   2.155  0.1084  0.2464  0.0366
    1ION     CL66251   1.410  11.235   8.446 -0.2205 -0.0541  0.4018
    1ION     CL66252   3.685   2.324   2.292 -0.0666 -0.1037  0.1356
    1ION     CL66253  20.198  16.800   8.927  0.2394  0.1047 -0.2387
    1ION     CL66254  15.238  16.548   0.890 -0.0001  0.3378 -0.0504
    1ION     CL66255   5.362   5.207   2.664 -0.1042 -0.1786  0.1243
    1ION     CL66256  26.884  13.562   6.933  0.2182 -0.2969 -0.2395
    1ION     CL66257   0.815  10.769   7.539 -0.1165 -0.1674 -0.4509
    1ION     CL66258  11.994  16.270   7.444 -0.0832  0.0860  0.3837
    1ION     CL66259  24.677  15.757   6.394  0.2106 -0.1035  0.1281
    1ION     CL66260  22.450  10.406   8.950  0.0967 -0.0505 -0.0747
    1ION     CL66261  21.887  13.263   7.947  0.1964 -0.0904 -0.1102
    1ION     CL66262  29.318  15.246   1.052  0.0900 -0.3380  0.1430
    1ION     CL66263  17.639  10.210   7.985 -0.1550 -0.1263 -0.1805
    1ION     CL66264  18.194   6.551   7.905  0.1128 -0.1655 -0.1111
    1ION     CL66265  13.871  28.392   2.377  0.0912 -0.1166  0.0539
    1ION     CL66266  19.801   4.330   2.321 -0.2053  0.1620  0.2496
    1ION     CL66267   8.551  16.997   7.219  0.1861 -0.1089 -0.0644
    1ION     CL66268   4.527  18.932   0.424 -0.1324  0.1641 -0.1506
    1ION     CL66269  12.475  23.010   0.997  0.2160 -0.3787  0.4630
    1ION     CL66270  15.171   9.433   1.984 -0.3012  0.1578 -0.0056
    1ION     CL66271  22.567   8.283   2.074 -0.0726 -0.1181  0.1745
    1ION     CL66272  10.522  25.197   0.433  0.2089  0.2211 -0.2926
    1ION     CL66273  20.916  27.139   7.996  0.0273 -0.0611  0.0132
    1ION     CL66274  21.850   8.142   0.426 -0.2419 -0.1373 -0.1869
    1ION     CL66275  14.510  21.851   1.284  0.1776 -0.2036 -0.1019
    1ION     CL66276   4.738  23.750   8.535 -0.0771 -0.1586  0.1190
    1ION     CL66277   9.581   1.414   2.576 -0.1994 -0.1576 -0.1232
    1ION     CL66278   9.499   9.396   8.126  0.1193  0.0927  0.2104
    1ION     CL66279  10.452  17.910   9.055 -0.1549 -0.0001 -0.0446
    1ION     CL66280  28.799  22.197   7.510  0.1376 -0.0702 -0.3022
    1ION     CL66281   5.477  24.221   1.667  0.5011  0.5738  0.0598
    1ION     CL66282  25.832   9.811   1.279  0.0010  0.2898  0.1780
    1ION     CL66283   7.390  26.216   8.658  0.0209  0.1854 -0.0643
    1ION     CL66284  20.640  28.715   7.301 -0.4014  0.1467 -0.1577
    1ION     CL66285   7.268  12.412   0.593  0.3311 -0.1656 -0.0911
    1ION     CL66286  12.232  18.491   7.652  0.1213  0.0891 -0.0140
    1ION     CL66287  19.151   2.374   1.872  0.2106 -0.0182  0.0154
    1ION     CL66288  20.627  10.696   0.970 -0.1001 -0.1180 -0.2432
    1ION     CL66289   5.445  26.301   7.047 -0.0722 -0.2557 -0.5457
    1ION     CL66290  12.761   5.849   2.282 -0.1465 -0.0103 -0.1434
    1ION     CL66291   5.331   8.870   7.718 -0.2629  0.2483 -0.0385
    1ION     CL66292  27.063  26.552   2.729  0.1643  0.1676 -0.0651
    1ION     CL66293  18.933  25.754   2.954  0.0993  0.0191  0.4374
    1ION     CL66294  26.580   1.840   0.167  0.0493  0.1357  0.1052
    1ION     CL66295  28.592  18.308   6.481  0.0187 -0.2335  0.1403
    1ION     CL66296  12.212  11.559   0.374  0.0003 -0.1008  0.1697
    1ION     CL66297   5.145  22.316   1.328  0.1233 -0.1537  0.0120
    1ION     CL66298  15.511  19.094   1.967  0.1296  0.1415  0.0334
    1ION     CL66299  23.375  22.302   7.686 -0.1089  0.1891 -0.1411
    1ION     CL66300   5.746  21.401   0.640  0.2119 -0.0492 -0.0860
    1ION     CL66301   7.099  15.052   8.834  0.1200 -0.1791 -0.0910
    1ION     CL66302  17.952  15.904   1.551 -0.1427 -0.0024 -0.1471
    1ION     CL66303  10.483  20.353   1.925 -0.1834 -0.3354 -0.2379
    1ION     CL66304  27.583   3.272   6.850  0.3019  0.0459  0.0236
    1ION     CL66305  17.253  16.397   1.690  0.0200  0.0555 -0.0293
    1ION     CL66306  21.845  25.503   2.389 -0.1222  0.0309 -0.0015
    1ION     CL66307   4.373   3.924   7.877 -0.1898 -0.4685 -0.2463
    1ION     CL66308  25.063  14.125   6.433  0.0822  0.1778  0.2319
    1ION     CL66309  28.628  25.690   0.945 -0.2508 -0.0532 -0.1070
    1ION     CL66310  21.208   4.473   8.195 -0.1787  0.0248  0.0708
    1ION     CL66311   1.522   3.538   7.186 -0.1672  0.2107  0.1220
    1ION     CL66312   5.541   4.096   0.051  0.4025  0.0709  0.1141
    1ION     CL66313   8.089  19.992   8.269 -0.4187  0.0965  0.0142
    1ION     CL66314  24.341   0.723   6.452 -0.0021 -0.2995 -0.0180
    1ION     CL66315   7.622   7.099   1.581 -0.0156  0.1343  0.1020
    1ION     CL66316   2.188  24.357   7.611  0.0471  0.0978 -0.0762
    1ION     CL66317   8.480  27.211   0.676  0.2345 -0.0398  0.1096
    1ION     CL66318  10.435  25.721   2.735  0.1297 -0.2984 -0.2682
    1ION     CL66319  22.897  19.713   1.836 -0.1269  0.2335 -0.0119
    1ION     CL66320   8.252   7.579   8.798 -0.1858 -0.0198  0.1425
    1ION     CL66321  14.065   8.718   9.110 -0.2656  0.2535 -0.2399
    1ION     CL66322  28.300  25.265   1.525 -0.1738  0.4409 -0.1299
    1ION     CL66323  15.794   5.387   1.090 -0.0031  0.3037  0.2017
    1ION     CL66324  29.361  13.034   8.738 -0.1026 -0.0065  0.1696
    1ION     CL66325  23.871   2.309   6.674  0.0781 -0.0458  0.0385
    1ION     CL66326   3.073   5.371   8.342  0.3276  0.0438  0.0036
    1ION     CL66327  16.879  10.790   7.678  0.1762  0.0228  0.2180
    1ION     CL66328  12.891   8.656   9.607 -0.2151  0.0171 -0.1519
    1ION     CL66329  13.821  21.938   7.350 -0.1328 -0.1362 -0.1336
    1ION     CL66330  20.827  18.034   8.364 -0.1837 -0.0479  0.0995
    1ION     CL66331   7.993  25.271   9.646 -0.1174  0.0375 -0.1500
    1ION     CL66332  21.176   2.203   7.369 -0.1179 -0.2918  0.0654
    1ION     CL66333   2.107  25.619   6.907 -0.0337  0.1788 -0.0576
    1ION     CL66334   4.846  28.835   9.575  0.0377 -0.0176 -0.0412
    1ION     CL66335  21.690  17.510   8.140 -0.0414 -0.2252 -0.0638
    1ION     CL66336  18.606  18.095   1.703 -0.2028 -0.0968 -0.2748
    1ION     CL66337   5.972  23.808   8.528  0.1708  0.0073 -0.2587
    1ION     CL66338  21.597   0.449   8.484  0.0929 -0.0906 -0.0783
    1ION     CL66339   4.638  13.995   6.791  0.0594 -0.1404 -0.2003
    1ION     CL66340  14.217   9.415   2.345 -0.1781  0.0650 -0.1205
    1ION     CL66341   9.578  23.526   6.905  0.0975 -0.2693  0.1191
    1ION     CL66342  28.456   3.367   6.945 -0.1955 -0.2717  0.0616
    1ION     CL66343  22.080   1.982   8.772 -0.0335  0.4712  0.0312
    1ION     CL66344  10.930  18.903   9.050 -0.1911  0.0927 -0.3494
    1ION     CL66345  22.902  29.117   2.474 -0.0021  0.1595 -0.1253
    1ION     CL66346  13.205  15.580   1.868  0.2184  0.1595  0.0412
    1ION     CL66347   3.927  23.530   8.366 -0.3389  0.1978 -0.1537
    1ION     CL66348  14.223  15.254   7.740 -0.0660 -0.2849  0.0762
    1ION     CL66349  17.214   8.435   2.998  0.0228  0.1021 -0.0829
    1ION     CL66350  29.242   5.849   8.525 -0.3525  0.0509  0.0459
    1ION     CL66351  11.677  19.744   1.426  0.0489  0.2767  0.2476
    1ION     CL66352  28.250  17.570   8.695  0.0300  0.1031  0.3942
    1ION     CL66353   8.892   8.176   8.689  0.1065  0.1424 -0.0285
    1ION     CL66354   6.397  24.037   0.458 -0.1173  0.1712  0.0213
    1ION     CL66355  12.586  13.874   0.477  0.0263 -0.0977  0.0614
    1ION     CL66356  16.274  16.945   9.244 -0.0485  0.1116 -0.1641
    1ION     CL66357  11.526  16.217   8.135  0.0616 -0.2390 -0.1565
    1ION     CL66358  25.451   0.092   1.889  0.3366  0.0452  0.0420
    1ION     CL66359  18.430   3.549   1.751  0.0283  0.0557 -0.1053
    1ION     CL66360   3.002  18.013   1.102 -0.2688 -0.2722  0.0751
    1ION     CL66361  14.527  18.707   1.765 -0.0561 -0.0133 -0.2141
    1ION     CL66362   0.247  28.928   8.931  0.1293  0.1387 -0.0264
    1ION     CL66363   9.703  13.272   1.105 -0.0705  0.3143  0.2702
    1ION     CL66364   4.271  16.038   1.779 -0.1921 -0.0951  0.0990
    1ION     CL66365  23.546  13.780   7.398  0.1100  0.1117  0.0815
    1ION     CL66366  18.597  14.231   8.144  0.0361  0.0409 -0.1463
    1ION     CL66367  26.968  19.542   8.583  0.0159  0.1381  0.0809
    1ION     CL66368   5.687   4.721   7.161 -0.4393  0.2774  0.1234
    1ION     CL66369   4.656  15.004   7.134  0.1645  0.0551 -0.0302
    1ION     CL66370   3.761   1.677   1.556  0.2943  0.0043 -0.0851
    1ION     CL66371  10.161  26.326   1.882 -0.1405 -0.1335 -0.0419
    1ION     CL66372  24.535  11.777   8.562 -0.2744  0.1223  0.0893
    1ION     CL66373  18.655   6.491   0.637 -0.0745  0.1480 -0.1410
    1ION     CL66374  26.700   2.660   9.653 -0.0195  0.0669 -0.1385
    1ION     CL66375  20.513  19.835   7.175 -0.0214  0.0424  0.0738
    1ION     CL66376   2.987  13.496   6.626 -0.1574  0.1162 -0.1540
    1ION     CL66377   6.693  22.230   6.705 -0.0420 -0.1241  0.3680
    1ION     CL66378  16.664  22.903   9.395 -0.2391  0.1038 -0.1166
    1ION     CL66379   4.060   8.188   6.890 -0.0892  0.0016 -0.4592
    1ION     CL66380  22.759  21.774   2.209  0.1629  0.1893  0.1181
    1ION     CL66381   7.537  20.912   0.839  0.0915  0.2684  0.0309
    1ION     CL66382  17.549  15.800   7.513  0.2038 -0.0334  0.0458
    1ION     CL66383  29.295  19.539   7.337 -0.2566 -0.1193 -0.0784
    1ION     CL66384   5.840  21.255   8.100  0.2962 -0.2656 -0.0063
    1ION     CL66385  29.330  29.087   8.147  0.0681 -0.1129  0.1780
    1ION     CL66386  21.998  24.301   7.168 -0.1101 -0.0929 -0.0385
    1ION     CL66387  20.216   8.037   2.954  0.0117  0.1891 -0.0841
    1ION     CL66388  13.705  27.321   3.523 -0.1512  0.3070  0.0503
    1ION     CL66389   2.901  18.853   6.496  0.1045  0.0897 -0.3669
    1ION     CL66390  26.971   8.823   0.633  0.3148 -0.1886  0.1473
    1ION     CL66391  21.090  22.778   2.232  0.0421 -0.0864  0.4561
    1ION     CL66392   6.594  13.428   7.580 -0.0955  0.0051 -0.2576
    1ION     CL66393   8.136  15.132   1.630  0.2070 -0.0161  0.0805
    1ION     CL66394  28.396  22.156   8.438  0.3729 -0.1184  0.0754
    1ION     CL66395   9.088  24.855   7.097 -0.1067 -0.0232 -0.1193
    1ION     CL66396   4.493   0.873   0.683  0.1028  0.2402 -0.0857
    1ION     CL66397   8.537  22.608   6.653 -0.0775  0.1557 -0.1635
    1ION     CL66398  13.521  15.082   1.380  0.0016  0.1211 -0.2008
    1ION     CL66399   1.587  23.571   6.992 -0.0030 -0.0568  0.0267
    1ION     CL66400  18.054  18.791   1.497 -0.0688  0.0382 -0.1378
    1ION     CL66401   8.806  28.255   0.417  0.0719  0.1444  0.1805
    1ION     CL66402   1.983  21.222   2.087  0.1828 -0.1748  0.1426
    1ION     CL66403  19.931   2.368   1.556 -0.0753 -0.0522 -0.0172
    1ION     CL66404  20.279  19.895   1.129 -0.1194  0.0893  0.3148
    1ION     CL66405  15.657  15.458   7.743  0.0645 -0.0189  0.1242
    1ION     CL66406   9.697   3.440   7.951  0.2870 -0.0048 -0.0231
    1ION     CL66407  26.720  14.509   6.856 -0.2654  0.0142  0.3673
    1ION     CL66408  22.628   6.467   2.322  0.0026  0.1381  0.0629
    1ION     CL66409  12.028   0.959   2.311 -0.0546  0.1758 -0.1667
    1ION     CL66410   9.851   7.435   0.234 -0.2276 -0.1282 -0.3608
    1ION     CL66411  25.217  13.645   0.303 -0.2141 -0.1223 -0.1548
    1ION     CL66412  11.254  28.387   8.665  0.0069  0.2897 -0.0403
    1ION     CL66413  18.283  13.522   7.334  0.2995 -0.0881  0.3039
    1ION     CL66414  23.091  17.055   2.039  0.3497  0.1277  0.1028
    1ION     CL66415  25.926  10.920   1.349 -0.2072 -0.1429 -0.1318
    1ION     CL66416  19.362  23.308   1.747 -0.0225 -0.3157 -0.2705
    1ION     CL66417   8.930  16.108   7.349 -0.0860  0.2334 -0.4556
    1ION     CL66418  12.657   0.565   0.508  0.0244 -0.0797  0.0751
    1ION     CL66419  23.181  12.437   7.354  0.1038 -0.0810 -0.3642
    1ION     CL66420   4.355  22.173   0.338  0.0363 -0.1157 -0.1085
    1ION     CL66421   6.446   0.080   8.485 -0.1733  0.4080 -0.3491
    1ION     CL66422  22.837  22.532   2.751  0.2378  0.0340  0.0827
    1ION     CL66423  26.005  24.998   2.063  0.0169  0.3537  0.2230
    1ION     CL66424  27.781  21.693   1.001 -0.0345 -0.0010  0.1909
    1ION     CL66425   4.703  16.621   0.163  0.0818  0.0558 -0.1113
    1ION     CL66426  11.479  14.462   8.798 -0.0803  0.2054  0.0948
    1ION     CL66427  27.907  16.797   0.456  0.1785  0.0214 -0.0654
    1ION     CL66428   5.673  28.297   7.625 -0.0458  0.1171  0.1563
    1ION     CL66429  16.530  21.466   0.679 -0.0996 -0.2349 -0.2344
    1ION     CL66430  22.154  16.321   0.592  0.0094  0.1692 -0.2574
    1ION     CL66431  11.127  14.481   0.658 -0.1443  0.0034  0.2376
    1ION     CL66432  20.168   2.680   8.098  0.1334  0.1595  0.0945
    1ION     CL66433  22.313  22.904   1.364 -0.2133  0.0214  0.2612
    1ION     CL66434  18.273  14.139   2.057  0.3745 -0.1215 -0.0844
    1ION     CL66435  28.485  11.003   1.456 -0.3825 -0.1142  0.2461
    1ION     CL66436  16.812  26.026   0.215 -0.1224  0.2927 -0.1439
    1ION     CL66437  16.710  11.773   7.405  0.4170 -0.1220 -0.2242
    1ION     CL66438  14.769  15.859   1.537 -0.1263  0.3919  0.1300
    1ION     CL66439  25.992   6.969   6.791  0.2878 -0.1581 -0.0903
    1ION     CL66440   2.061   3.297   2.521  0.2229 -0.0431 -0.0320
    1ION     CL66441   8.925  23.126   9.201 -0.1477  0.1101  0.1496
    1ION     CL66442  22.775   6.712   0.506  0.0565  0.1484  0.2041
    1ION     CL66443  11.336  23.099   2.131  0.1014  0.0802  0.1483
    1ION     CL66444   7.622   2.903   1.883 -0.2069  0.1778  0.1573
    1ION     CL66445  28.798  27.409   1.867 -0.1052  0.0441 -0.0031
    1ION     CL66446   2.945   5.207   1.499  0.1239 -0.4794 -0.1222
    1ION     CL66447   5.129  26.869   2.477  0.2274 -0.3811  0.2227
    1ION     CL66448  15.533   5.946   0.852 -0.1869 -0.0622  0.1098
    1ION     CL66449  22.478  21.659   7.610 -0.3305 -0.0568  0.1298
    1ION     CL66450  18.237  20.463   2.480  0.0093  0.2823 -0.1546
    1ION     CL66451  14.880  18.404   7.838  0.2276 -0.0971  0.3577
    1ION     CL66452   5.019  19.542   9.452  0.4901  0.0075 -0.0251
    1ION     CL66453  21.173  18.595   8.401 -0.2946 -0.2201 -0.1653
    1ION     CL66454   1.617  11.473   6.950  0.3356  0.2806 -0.1280
    1ION     CL66455   1.739  16.663   0.372 -0.1252 -0.3349 -0.1506
    1ION     CL66456   0.870   0.011   8.300  0.0932  0.3502 -0.2188
    1ION     CL66457   4.586  25.982   1.709 -0.2579 -0.0906 -0.1919
    1ION     CL66458  23.728   9.686   9.304  0.2744 -0.1581 -0.0954
    1ION     CL66459  14.650  10.378   0.010  0.0339 -0.0695  0.0692
    1ION     CL66460  20.440  19.005   9.209  0.0426  0.4682 -0.2815
    1ION     CL66461  16.609  11.187   2.305  0.1835 -0.0342 -0.0017
    1ION     CL66462  18.405  28.627   8.500  0.2831  0.0443  0.4026
    1ION     CL66463  22.883   1.925   2.099 -0.3052  0.1677 -0.1213
    1ION     CL66464   4.732   8.613   6.677  0.1905 -0.2537  0.0066
    1ION     CL66465  16.546  26.722   1.808 -0.0657  0.1020 -0.0343
    1ION     CL66466  21.176  21.458   7.449 -0.0135 -0.0738 -0.0278
    1ION     CL66467  14.652   8.068   0.997  0.0143  0.1094 -0.2281
    1ION     CL66468   5.533   6.161   9.135  0.0030 -0.1530 -0.1533
    1ION     CL66469  12.304   3.975   1.140 -0.2552 -0.0228  0.1472
    1ION     CL66470   0.181   9.910   0.282  0.3946 -0.3239  0.1590
    1ION     CL66471  17.908   4.616   1.405 -0.3702 -0.1924 -0.0572
    1ION     CL66472   6.499  18.239   6.748  0.0666 -0.0811 -0.2430
    1ION     CL66473   3.858  15.333   0.681  0.0127 -0.2545  0.1135
    1ION     CL66474  21.752  25.291   7.492  0.1181 -0.0269  0.2580
    1ION     CL66475  12.973   6.408   8.543  0.2950  0.1668 -0.0114
    1ION     CL66476   5.915  20.418   8.652  0.2240  0.4123  0.0261
    1ION     CL66477   9.634   0.290   8.927 -0.1161  0.0401 -0.0445
    1ION     CL66478  11.759   6.016   1.372 -0.2837 -0.1988 -0.2557
    1ION     CL66479   3.743  18.357   1.937 -0.0939  0.1483  0.1929
    1ION     CL66480   4.034   9.257   7.039 -0.1422 -0.1014  0.0690
    1ION     CL66481  27.111   8.406   6.803 -0.0651 -0.2076 -0.2083
    1ION     CL66482  15.317  19.335   7.731 -0.3334 -0.0144  0.0735
    1ION     CL66483  17.333   8.921   7.999 -0.0860 -0.2101 -0.2014
    1ION     CL66484  19.344   1.656   7.747 -0.0777 -0.0164 -0.0877
    1ION     CL66485  15.461   4.546   7.796  0.2133 -0.2798 -0.0004
    1ION     CL66486  14.943  20.034   7.797  0.1235  0.0909  0.1403
    1ION     CL66487   1.106   6.417   7.014  0.0487  0.1071 -0.2380
    1ION     CL66488  19.244  27.292   1.446  0.0905  0.0240 -0.0221
    1ION     CL66489  26.443  16.472   8.900  0.1692 -0.1570 -0.1108
    1ION     CL66490   2.701  26.650   2.268 -0.7303 -0.1327  0.0925
    1ION     CL66491  28.552  29.205   0.652 -0.1862 -0.0244 -0.2119
    1ION     CL66492  19.035   6.142   2.117  0.0073 -0.1241 -0.1428
    1ION     CL66493  16.230   4.995   8.137 -0.2437  0.1934 -0.1937
    1ION     CL66494  12.245  20.854   1.353 -0.1992 -0.1061 -0.0270
    1ION     CL66495   3.466  28.721   0.801  0.0096  0.0128 -0.1240
    1ION     CL66496   0.780  22.387   8.251 -0.4040 -0.0678  0.0133
    1ION     CL66497  26.113  14.491   9.578  0.0271 -0.2315 -0.1633
    1ION     CL66498  10.549  28.877   3.293 -0.4567  0.1703  0.0027
    1ION     CL66499  27.735   1.704   9.583 -0.0198  0.0239 -0.3784
    1ION     CL66500   0.158   6.896   9.101 -0.1434 -0.2089  0.1518
    1ION     CL66501  25.724  19.623   0.326 -0.0224  0.0428  0.0876
    1ION     CL66502  14.940  11.247   8.477 -0.0268  0.0594  0.2554
    1ION     CL66503  28.976  27.241   8.992 -0.2930 -0.1024  0.1955
    1ION     CL66504  21.308   9.904   1.646  0.0219 -0.0710  0.1658
    1ION     CL66505  19.037   9.080   2.690  0.1413  0.1272 -0.3670
    1ION     CL66506  23.978  21.421   2.634  0.1794  0.1555  0.2662
    1ION     CL66507   9.007  26.470   2.044  0.3201 -0.1741 -0.0950
    1ION     CL66508  15.245  17.137   1.739 -0.1758 -0.0739  0.1374
    1ION     CL66509  15.685  19.745   0.496  0.1993  0.0623 -0.1668
    1ION     CL66510  17.006  11.589   1.652  0.2348 -0.0928  0.0922
    1ION     CL66511   1.083   5.073   9.640  0.0375  0.0089  0.0696
    1ION     CL66512  17.390   1.942   9.300  0.0360  0.0769 -0.2111
    1ION     CL66513   3.868   2.782   8.654 -0.0167  0.3275 -0.3099
    1ION     CL66514  19.346  24.175   0.490  0.2602 -0.0844  0.2092
    1ION     CL66515  22.302  23.649   8.121 -0.1923 -0.2385  0.1336
    1ION     CL66516  16.516   6.396   2.997 -0.0216  0.0323  0.3040
    1ION     CL66517   4.494  28.708   1.798  0.0688  0.3163  0.1067
    1ION     CL66518  14.013  19.669   1.280  0.0193 -0.0711 -0.3409
    1ION     CL66519   7.577   1.425   9.085 -0.1062  0.2003 -0.1528
    1ION     CL66520   8.628  12.695   9.186  0.1212  0.1655  0.2359
    1ION     CL66521  26.755  27.327   0.290 -0.0840  0.3815 -0.1415
    1ION     CL66522  25.516   6.486   8.400  0.2188 -0.0948  0.4511
    1ION     CL66523   3.024  12.828   0.233  0.2349  0.0505  0.0481
    1ION     CL66524  16.816  29.323   7.920 -0.3399 -0.3191 -0.0162
    1ION     CL66525  15.827   9.819   1.745  0.1860 -0.3619 -0.2079
    1ION     CL66526   5.642  18.163   0.334 -0.2180 -0.0075 -0.0951
    1ION     CL66527  24.725   4.562   6.534 -0.3706  0.1355 -0.1427
    1ION     CL66528  14.585   5.554   8.163 -0.0263  0.2281  0.0384
    1ION     CL66529   3.874  25.393   1.600 -0.3949 -0.1058 -0.1483
    1ION     CL66530  24.347  24.078   2.668 -0.0115  0.1020  0.2072
    1ION     CL66531  14.043  24.643   2.015  0.0023  0.1547 -0.1596
    1ION     CL66532   2.163  20.216   1.634 -0.4230  0.0593  0.0645
    1ION     CL66533  26.039   7.824   2.378 -0.1543 -0.2134 -0.1594
    1ION     CL66534   4.517   5.900   7.337  0.2226  0.0687  0.1130
    1ION     CL66535  11.795   8.566   7.926  0.1529 -0.0913  0.1279
    1ION     CL66536   0.743  13.123   0.850 -0.4117  0.1369  0.1485
    1ION     CL66537   4.227   0.622   2.925 -0.3039 -0.0354  0.1689
    1ION     CL66538   8.682  14.756   0.667  0.0042  0.3779  0.2814
    1ION     CL66539   1.652   1.416   6.661 -0.0631  0.2259  0.0756
    1ION     CL66540  14.324   3.459   7.478  0.0533 -0.0455 -0.2460
    1ION     CL66541  26.372  23.117   0.712  0.1063  0.0716  0.2618
    1ION     CL66542  22.374   8.130   8.746 -0.0479 -0.0632  0.0837
    1ION     CL66543   2.362  15.465   8.611  0.0382 -0.0655  0.2664
    1ION     CL66544  14.812  12.055   8.205 -0.1740 -0.1232  0.0340
    1ION     CL66545   0.508  15.330   8.701 -0.1184 -0.0217  0.2000
    1ION     CL66546  18.539  18.935   0.756  0.0740 -0.2093  0.2124
    1ION     CL66547  20.975   3.556   1.293  0.0565 -0.0520 -0.1826
    1ION     CL66548  15.526   8.791   0.358  0.2914  0.4318  0.2114
    1ION     CL66549  15.010  11.300   7.478  0.1136 -0.3367 -0.1110
    1ION     CL66550  20.112  13.006   1.647 -0.1038 -0.0096 -0.1244
    1ION     CL66551   5.590  23.900   7.036  0.0396 -0.0545 -0.0184
    1ION     CL66552  11.824  24.018   2.440  0.0776 -0.1912  0.1018
    1ION     CL66553  12.045  18.391   0.011 -0.0649  0.2448 -0.1429
    1ION     CL66554  23.185  11.983   8.893  0.1151  0.0060 -0.0370
    1ION     CL66555  19.769   5.054   7.729 -0.1464 -0.0779  0.1050
    1ION     CL66556   7.429  10.437   3.381 -0.1036  0.1501 -0.0628
    1ION     CL66557   2.177   3.084   2.062  0.0056 -0.2179  0.1026
    1OPC    NC366558  16.074   2.322   7.117  0.1218  0.1236 -0.1110
    1OPC    PO466559  15.990   2.481   6.803  0.0324  0.1429 -0.0561
    1OPC    GL166560  15.863   2.347   6.403 -0.2550 -0.0018  0.0918
    1OPC    GL266561  15.823   2.304   6.013 -0.3112  0.0917 -0.1254
    1OPC    C1B66562  16.141   2.397   5.667 -0.0861  0.1966 -0.0715
    1OPC    D2B66563  16.385   2.690   5.421 -0.4013  0.0707  0.1262
    1OPC    C3B66564  16.209   3.104   5.269 -0.3655 -0.1655  0.0001
    1OPC    C4B66565  15.904   3.324   5.365 -0.2153  0.0263 -0.4095
    1OPC    NC366566   3.608  16.209   6.916  0.0199 -0.3004  0.1381
    1OPC    PO466567   3.859  16.294   6.545  0.0727 -0.3251 -0.2002
    1OPC    GL166568   4.126  16.248   6.115 -0.0828  0.0073  0.1375
    1OPC    GL266569   4.006  16.372   5.794  0.1656  0.2426  0.4286
    1OPC    C1B66570   4.048  16.664   5.430  0.0339  0.0646  0.1769
    1OPC    D2B66571   3.689  16.608   5.015  0.2208  0.3215  0.0347
    1OPC    C3B66572   3.301  16.822   4.908 -0.0223 -0.1448 -0.0094
    1OPC    C4B66573   3.144  17.290   4.798 -0.0353  0.0126 -0.1476
    1OPC    NC366574  16.229  29.029   7.401  0.2146  0.2369  0.0501
    1OPC    PO466575  15.883  28.964   7.690 -0.0517 -0.0179 -0.0258
    1OPC    GL166576  15.788  28.832   7.325 -0.2598  0.1334  0.0221
    1OPC    GL266577  15.700  28.600   7.132  0.3182  0.4721 -0.2041
    1OPC    C1B66578  15.798  28.645   6.727 -0.0326 -0.0639 -0.0979
    1OPC    D2B66579  15.931  28.820   6.320 -0.0523  0.1369 -0.3812
    1OPC    C3B66580  15.765  29.096   5.975  0.0658  0.2449  0.0024
    1OPC    C4B66581  15.865  29.328   5.709  0.2816 -0.1030 -0.3395
    1OPC    NC366582  21.644  10.241   6.925  0.1073  0.1836 -0.0919
    1OPC    PO466583  21.923   9.872   6.653  0.2157  0.1066  0.3257
    1OPC    GL166584  22.042   9.562   6.451 -0.2441  0.1390 -0.3016
    1OPC    GL266585  22.181   9.397   6.344  0.0500  0.2586  0.0888
    1OPC    C1B66586  22.397   9.361   6.100 -0.1604 -0.0795 -0.1731
    1OPC    D2B66587  22.773   9.503   5.826  0.0089  0.2049 -0.0384
    1OPC    C3B66588  22.849   9.301   5.398  0.0542 -0.0371 -0.0434
    1OPC    C4B66589  22.880   9.210   4.978 -0.4133 -0.3029  0.2490
    1OPC    NC366590  16.986  27.202   7.989  0.0681  0.2230  0.3572
    1OPC    PO466591  16.805  27.011   7.653  0.1373  0.2727 -0.1044
    1OPC    GL166592  16.884  27.012   7.253  0.1888 -0.4389 -0.2255
    1OPC    GL266593  16.836  26.969   6.893  0.2267  0.1555 -0.0398
    1OPC    C1B66594  16.871  27.082   6.440  0.2966 -0.1990 -0.0874
    1OPC    D2B66595  16.923  26.981   6.039  0.2746 -0.0474 -0.2646
    1OPC    C3B66596  16.805  27.006   5.658 -0.1760 -0.1269 -0.1675
    1OPC    C4B66597  17.018  27.324   5.430  0.1461 -0.0521  0.1848
    1OPC    NC366598   4.903   4.230   6.443 -0.1086  0.4197  0.1848
    1OPC    PO466599   4.944   4.669   6.517  0.1651  0.1648  0.0256
    1OPC    GL166600   4.980   5.013   6.110 -0.0870 -0.1279  0.0468
    1OPC    GL266601   5.128   5.041   5.850  0.0794 -0.3176 -0.0864
    1OPC    C1B66602   5.443   5.039   5.583  0.0809 -0.1683  0.0112
    1OPC    D2B66603   5.869   4.923   5.558  0.1288  0.1348 -0.2231
    1OPC    C3B66604   5.710   4.524   5.507  0.0348  0.1111 -0.0722
    1OPC    C4B66605   5.643   4.140   5.663 -0.0633 -0.0068 -0.0963
    1OPC    NC366606   6.444   3.768   7.245  0.0313 -0.0765 -0.1095
    1OPC    PO466607   6.020   3.798   7.169  0.1263 -0.4470 -0.1271
    1OPC    GL166608   6.166   3.940   6.730 -0.1564 -0.1428 -0.2446
    1OPC    GL266609   6.181   3.843   6.440 -0.1312 -0.0333  0.0152
    1OPC    C1B66610   6.212   4.071   5.960 -0.2011  0.1304  0.2230
    1OPC    D2B66611   6.187   4.249   5.599 -0.0769  0.0591  0.1968
    1OPC    C3B66612   6.456   4.478   5.208 -0.1406  0.1578 -0.0456
    1OPC    C4B66613   6.716   4.710   4.859 -0.1378  0.1929  0.0804
    1OPC    NC366614   1.336  21.642   6.476  0.0003 -0.0400 -0.1701
    1OPC    PO466615   1.183  21.371   6.041 -0.3947  0.3280  0.1247
    1OPC    GL166616   1.285  21.829   5.835 -0.0054 -0.0603  0.1065
    1OPC    GL266617   1.162  22.190   5.842  0.1831 -0.0537  0.3465
    1OPC    C1B66618   1.009  22.436   5.466  0.1302  0.1038  0.0682
    1OPC    D2B66619   0.866  22.750   5.117 -0.0881 -0.1071 -0.2058
    1OPC    C3B66620   1.057  22.726   4.772 -0.2114  0.3105 -0.0070
    1OPC    C4B66621   1.110  22.622   4.250  0.1964 -0.0228 -0.0530
    1OPC    NC366622   9.505   6.498   7.494  0.0084 -0.0422  0.1803
    1OPC    PO466623   9.621   6.097   7.449  0.3142 -0.2504 -0.3877
    1OPC    GL166624   9.737   6.261   7.089  0.1337  0.1861  0.0749
    1OPC    GL266625   9.737   6.267   6.841  0.2277 -0.1115  0.1547
    1OPC    C1B66626   9.771   6.109   6.343 -0.1201 -0.0800  0.2514
    1OPC    D2B66627   9.784   5.913   5.922  0.2090  0.0217  0.1850
    1OPC    C3B66628   9.341   5.696   5.877  0.0679  0.2305 -0.1859
    1OPC    C4B66629   8.905   5.743   5.677  0.3920 -0.4700  0.2339
    1OPC    NC366630   3.323  18.144   6.053  0.1419  0.3912 -0.1682
    1OPC    PO466631   3.043  17.910   6.317 -0.0155  0.1727 -0.0399
    1OPC    GL166632   2.898  17.949   5.828  0.0867  0.0775  0.1224
    1OPC    GL266633   2.709  17.927   5.479 -0.0319 -0.0284 -0.0277
    1OPC    C1B66634   2.665  18.357   5.259  0.1492  0.0532  0.0663
    1OPC    D2B66635   2.799  18.624   4.794  0.2113 -0.0944 -0.0121
    1OPC    C3B66636   2.718  18.235   4.473 -0.2524 -0.2447 -0.0806
    1OPC    C4B66637   2.684  17.864   4.234 -0.2288  0.0809  0.2195
    1OPC    NC366638   6.191  18.678   5.935 -0.1041 -0.0468 -0.1265
    1OPC    PO466639   6.725  18.515   5.957  0.1606 -0.2622 -0.0670
    1OPC    GL166640   6.693  18.255   5.573 -0.0960 -0.1018  0.0739
    1OPC    GL266641   6.797  18.153   5.368  0.1213  0.0142 -0.3393
    1OPC    C1B66642   6.858  17.831   5.111 -0.1587 -0.1563  0.0767
    1OPC    D2B66643   7.049  17.445   4.911 -0.3349 -0.0439  0.1868
    1OPC    C3B66644   7.104  17.410   4.581 -0.0620 -0.1025  0.1052
    1OPC    C4B66645   7.409  17.471   4.342 -0.3685 -0.2670  0.1216
    1OPC    NC366646  16.406   3.006   7.338  0.0713  0.1871 -0.1823
    1OPC    PO466647  16.491   2.627   7.111 -0.1186 -0.2949  0.2598
    1OPC    GL166648  16.346   2.848   6.833 -0.3263 -0.0133  0.2473
    1OPC    GL266649  16.325   2.754   6.530 -0.1811 -0.0477 -0.1077
    1OPC    C1B66650  16.400   2.456   6.159  0.1328 -0.1652  0.1348
    1OPC    D2B66651  16.581   2.213   5.870  0.2434 -0.2564 -0.2174
    1OPC    C3B66652  16.905   2.220   5.498  0.0215  0.1156  0.1192
    1OPC    C4B66653  16.800   2.559   5.119 -0.2669 -0.4714 -0.3113
    1OPC    NC366654  16.103  25.338   7.830  0.2798 -0.3215 -0.2499
    1OPC    PO466655  16.244  25.411   7.361 -0.1302  0.1723 -0.3746
    1OPC    GL166656  16.181  25.353   6.885  0.1370  0.2348 -0.3219
    1OPC    GL266657  16.306  25.557   6.649  0.1263 -0.0781  0.1980
    1OPC    C1B66658  16.426  25.661   6.191  0.0285 -0.1986  0.0379
    1OPC    D2B66659  16.343  25.822   5.779  0.0610  0.4734  0.1447
    1OPC    C3B66660  16.398  25.556   5.413 -0.1847 -0.1011  0.0884
    1OPC    C4B66661  16.803  25.268   5.292  0.0215  0.1568  0.0191
    1OPC    NC366662   7.033  13.496   6.654 -0.2491  0.3794  0.3751
    1OPC    PO466663   7.420  13.740   6.674  0.3977 -0.1275 -0.0787
    1OPC    GL166664   7.173  13.923   6.350 -0.1121 -0.3182  0.0776
    1OPC    GL266665   7.072  14.154   6.346 -0.1724  0.1055 -0.1089
    1OPC    C1B66666   7.087  14.401   6.033  0.1871 -0.0044 -0.0645
    1OPC    D2B66667   7.028  14.358   5.559  0.0033  0.0609  0.0129
    1OPC    C3B66668   7.127  14.174   5.259 -0.0414 -0.1218  0.0828
    1OPC    C4B66669   7.147  14.150   4.865  0.2815 -0.1538 -0.1301
    1OPC    NC366670   7.233   3.049   7.242  0.1920 -0.1223 -0.0389
    1OPC    PO466671   7.217   3.348   7.303  0.1773  0.1290  0.4385
    1OPC    GL166672   7.466   3.379   6.912  0.0037  0.2353 -0.0154
    1OPC    GL266673   7.397   3.183   6.681 -0.1262  0.2051 -0.0285
    1OPC    C1B66674   7.424   3.174   6.323 -0.1536 -0.1593  0.1512
    1OPC    D2B66675   7.402   3.257   5.780  0.3895  0.1695 -0.0077
    1OPC    C3B66676   7.154   3.000   5.603 -0.1879  0.3445 -0.3490
    1OPC    C4B66677   7.257   2.566   5.373  0.1675 -0.2042  0.1468
    1OPC    NC366678  16.082  27.665   8.053 -0.0153 -0.0881  0.3337
    1OPC    PO466679  16.176  27.432   7.603  0.0588  0.1552 -0.0526
    1OPC    GL166680  16.217  27.704   7.136  0.2832 -0.0612  0.0331
    1OPC    GL266681  16.284  27.700   6.855  0.2486  0.1197  0.1155
    1OPC    C1B66682  16.156  27.916   6.403  0.0737 -0.0630  0.2967
    1OPC    D2B66683  16.187  27.989   5.960  0.0311 -0.1308  0.2903
    1OPC    C3B66684  16.484  28.362   5.805 -0.1610  0.1389  0.0564
    1OPC    C4B66685  16.977  28.280   5.567  0.1353 -0.0957  0.4361
    1OPC    NC366686   2.270  19.451   6.722 -0.1405  0.0831  0.3863
    1OPC    PO466687   2.575  19.643   6.362 -0.1113 -0.1098  0.1139
    1OPC    GL166688   2.737  19.902   5.985 -0.0538 -0.0315 -0.0797
    1OPC    GL266689   2.730  20.060   5.753  0.0636 -0.0211  0.4975
    1OPC    C1B66690   2.833  19.985   5.347  0.0086 -0.2206  0.0296
    1OPC    D2B66691   3.061  20.119   5.003 -0.3007  0.2045  0.2833
    1OPC    C3B66692   3.403  20.013   4.943 -0.0566  0.2073  0.1934
    1OPC    C4B66693   3.555  19.724   4.697  0.3340 -0.3001 -0.0699
    1OPC    NC366694  26.633  16.521   5.882 -0.1080 -0.0002  0.3419
    1OPC    PO466695  26.129  16.509   5.866 -0.2179  0.1083 -0.0843
    1OPC    GL166696  26.147  16.557   5.471  0.1618 -0.3520  0.0751
    1OPC    GL266697  26.115  16.641   5.156  0.0626 -0.0938 -0.0002
    1OPC    C1B66698  26.206  16.353   4.767  0.1526 -0.0748 -0.2122
    1OPC    D2B66699  26.132  16.099   4.408  0.3443 -0.2153  0.0444
    1OPC    C3B66700  26.451  15.688   4.348 -0.2030 -0.1552  0.1116
    1OPC    C4B66701  26.822  15.495   4.169  0.0545 -0.3654 -0.1063
    1OPC    NC366702  19.222   4.664   6.633 -0.1226  0.0214  0.2247
    1OPC    PO466703  19.602   4.474   6.887 -0.1838  0.0757 -0.1812
    1OPC    GL166704  19.735   4.718   6.495 -0.0232  0.2261 -0.3167
    1OPC    GL266705  19.564   4.699   6.191 -0.1920  0.0675  0.2691
    1OPC    C1B66706  19.633   4.841   5.785  0.1623 -0.1430 -0.2283
    1OPC    D2B66707  19.627   4.940   5.369 -0.2455 -0.0031 -0.0524
    1OPC    C3B66708  19.968   4.907   5.047 -0.0034  0.1058  0.3041
    1OPC    C4B66709  20.249   4.609   4.903 -0.0354 -0.3946  0.2661
    1OPC    NC366710   5.193  21.299   6.432  0.0001 -0.2168 -0.0097
    1OPC    PO466711   4.799  21.100   6.340 -0.2005 -0.1054  0.1364
    1OPC    GL166712   4.735  21.074   5.787  0.2563  0.1009  0.0761
    1OPC    GL266713   4.556  21.201   5.574  0.2058  0.0693 -0.1095
    1OPC    C1B66714   4.548  21.171   5.076  0.1912 -0.0054  0.0356
    1OPC    D2B66715   4.615  21.134   4.567 -0.0274 -0.1505  0.2316
    1OPC    C3B66716   4.425  20.836   4.383 -0.1739 -0.2973  0.1686
    1OPC    C4B66717   4.299  20.449   4.559 -0.0483 -0.0940 -0.0910
    1OPC    NC366718  25.237   8.503   6.666  0.1838  0.1912 -0.0027
    1OPC    PO466719  25.590   8.729   6.544  0.0208  0.0599  0.2684
    1OPC    GL166720  25.548   9.056   6.199 -0.0025 -0.0269  0.0711
    1OPC    GL266721  25.680   9.114   5.888  0.1306  0.0553 -0.2162
    1OPC    C1B66722  25.716   8.946   5.438  0.0000  0.2689  0.1482
    1OPC    D2B66723  25.738   9.004   5.050 -0.2300  0.0775 -0.1454
    1OPC    C3B66724  26.059   8.826   4.697 -0.0969 -0.2408 -0.1059
    1OPC    C4B66725  26.287   8.944   4.317 -0.0606 -0.1642 -0.0615
    1OPC    NC366726  23.984   4.258   5.761 -0.3197  0.0366  0.3764
    1OPC    PO466727  24.316   4.592   5.712 -0.1528 -0.2759  0.0677
    1OPC    GL166728  24.332   4.344   5.334  0.1773  0.1178 -0.0601
    1OPC    GL266729  24.396   4.061   5.124  0.0871  0.0816  0.1920
    1OPC    C1B66730  24.107   3.865   4.879 -0.0244 -0.1208  0.1917
    1OPC    D2B66731  24.027   3.804   4.447  0.3443  0.0599 -0.2637
    1OPC    C3B66732  23.557   3.843   4.276 -0.0897 -0.0289  0.0130
    1OPC    C4B66733  23.390   3.481   4.026 -0.4297  0.1019  0.0960
    1OPC    NC366734  21.298   0.813   6.362  0.0917 -0.1626 -0.1370
    1OPC    PO466735  21.569   0.472   6.395  0.2244  0.2098  0.0420
    1OPC    GL166736  21.703   0.219   6.158 -0.0402  0.2439  0.0198
    1OPC    GL266737  21.979   0.197   5.921 -0.1106 -0.1820  0.3038
    1OPC    C1B66738  21.962  -0.008   5.501 -0.1513 -0.0731  0.1639
    1OPC    D2B66739  22.069  -0.341   5.272  0.1146 -0.1854  0.0103
    1OPC    C3B66740  22.300  -0.411   4.922 -0.0250  0.1020 -0.2061
    1OPC    C4B66741  22.691  -0.482   4.747 -0.1062  0.3574  0.2661
    1OPC    NC366742  20.776  23.004   6.355  0.1769  0.1823 -0.0860
    1OPC    PO466743  20.787  22.646   6.765 -0.0969 -0.0851 -0.3905
    1OPC    GL166744  21.202  22.833   6.603  0.2251 -0.2708 -0.0768
    1OPC    GL266745  21.506  22.740   6.514 -0.2230 -0.0743  0.1900
    1OPC    C1B66746  21.726  22.830   6.199 -0.5281 -0.0170  0.2081
    1OPC    D2B66747  22.075  22.823   5.961 -0.1526 -0.0148  0.1561
    1OPC    C3B66748  22.017  22.757   5.423 -0.1879  0.1325 -0.3582
    1OPC    C4B66749  22.162  22.703   5.069  0.0532  0.0928  0.1707
    1OPC    NC366750  25.387  28.222   6.413 -0.2622  0.1121 -0.1455
    1OPC    PO466751  25.512  28.645   6.574  0.1488  0.3561 -0.0637
    1OPC    GL166752  25.087  28.646   6.297  0.0185  0.1862  0.1316
    1OPC    GL266753  24.887  28.801   6.128 -0.1575 -0.1348 -0.2811
    1OPC    C1B66754  24.748  28.958   5.772 -0.0500 -0.3026 -0.3968
    1OPC    D2B66755  24.532  29.084   5.339  0.0278 -0.1704  0.1978
    1OPC    C3B66756  24.477  29.198   4.923 -0.1485 -0.1824 -0.0690
    1OPC    C4B66757  24.761  29.150   4.628 -0.0588 -0.0242  0.2825
    1OPC    NC366758   0.183  26.805   6.590  0.2739  0.0244 -0.1732
    1OPC    PO466759   0.448  27.156   6.652  0.0238 -0.0488  0.0820
    1OPC    GL166760   0.311  27.182   6.123  0.1356 -0.1765 -0.0831
    1OPC    GL266761   0.060  27.294   5.856 -0.2411  0.1776 -0.0112
    1OPC    C1B66762   0.083  27.268   5.406  0.2486  0.1369 -0.1376
    1OPC    D2B66763   0.384  27.016   5.200 -0.1271 -0.2137 -0.0635
    1OPC    C3B66764   0.345  26.644   5.125 -0.3786  0.0141 -0.1548
    1OPC    C4B66765   0.528  26.387   4.733  0.0904  0.1808  0.2800
    1OPC    NC366766  10.637  25.133   6.691 -0.0149 -0.0616 -0.2467
    1OPC    PO466767  10.287  25.011   6.769 -0.3138  0.0774 -0.0679
    1OPC    GL166768  10.252  25.449   6.521  0.1581 -0.3856  0.2213
    1OPC    GL266769  10.309  25.714   6.310  0.2111  0.0888  0.0967
    1OPC    C1B66770  10.398  25.812   6.017 -0.1330  0.0931  0.2326
    1OPC    D2B66771  10.262  26.080   5.694 -0.0074  0.1384 -0.0831
    1OPC    C3B66772  10.396  26.552   5.498  0.0622 -0.0929 -0.4475
    1OPC    C4B66773  10.819  26.709   5.483  0.1351 -0.1607 -0.2901
    1OPC    NC366774   9.231  20.817   6.556 -0.1228  0.1317 -0.0046
    1OPC    PO466775   9.561  20.627   6.461  0.1689 -0.1392  0.1198
    1OPC    GL166776   9.643  20.549   5.994 -0.0172 -0.1680 -0.1774
    1OPC    GL266777   9.430  20.462   5.709 -0.2043 -0.3065 -0.3018
    1OPC    C1B66778   9.402  20.398   5.279  0.1752 -0.0463  0.2191
    1OPC    D2B66779   9.549  20.216   4.911 -0.3513  0.4336 -0.0992
    1OPC    C3B66780   9.440  19.979   4.521  0.0578 -0.0742 -0.0050
    1OPC    C4B66781   9.627  20.156   4.164 -0.2697 -0.1706 -0.1474
    1OPC    NC366782   1.626   3.222   6.831 -0.3225 -0.2505  0.0892
    1OPC    PO466783   2.002   3.193   6.576  0.1357 -0.1590  0.0003
    1OPC    GL166784   2.012   3.044   6.194  0.0084  0.0470 -0.2053
    1OPC    GL266785   1.833   3.227   6.008 -0.0590 -0.0449 -0.0651
    1OPC    C1B66786   1.762   3.285   5.608 -0.0705 -0.4421 -0.0145
    1OPC    D2B66787   1.630   3.093   5.374 -0.0704 -0.2593 -0.2215
    1OPC    C3B66788   1.602   3.063   4.973 -0.0170 -0.1994 -0.2612
    1OPC    C4B66789   1.746   2.983   4.578 -0.0723  0.1275  0.1013
    1OPC    NC366790  11.596   3.389   8.296 -0.2385  0.0899 -0.1430
    1OPC    PO466791  11.736   3.330   7.917 -0.0173  0.0272 -0.2099
    1OPC    GL166792  11.426   3.298   7.529  0.2483  0.0254 -0.0218
    1OPC    GL266793  11.453   3.371   7.210 -0.1395  0.1293  0.0456
    1OPC    C1B66794  11.345   3.330   6.728  0.1081  0.1113 -0.0079
    1OPC    D2B66795  11.292   3.478   6.380  0.2698  0.0585  0.1380
    1OPC    C3B66796  11.386   3.345   6.042 -0.0128  0.0542 -0.0172
    1OPC    C4B66797  11.328   3.357   5.538  0.2091 -0.0842  0.2792
    1OPC    NC366798  21.583  22.021   6.829  0.1560  0.0919 -0.0774
    1OPC    PO466799  21.268  21.956   6.566 -0.0025 -0.1101 -0.2302
    1OPC    GL166800  20.899  21.822   6.366 -0.0863  0.2436 -0.0132
    1OPC    GL266801  21.026  21.652   6.108 -0.2097 -0.1859 -0.1030
    1OPC    C1B66802  21.227  21.400   5.883  0.3985 -0.1096  0.1546
    1OPC    D2B66803  21.615  21.467   5.560  0.0214  0.0870 -0.1846
    1OPC    C3B66804  21.645  21.781   5.124  0.0464  0.1948  0.1612
    1OPC    C4B66805  21.372  21.972   4.779  0.0275  0.3035 -0.3509
    1OPC    NC366806  28.331  21.771   6.336 -0.2010 -0.1500  0.0198
    1OPC    PO466807  27.952  21.834   6.323  0.2272 -0.0448  0.1158
    1OPC    GL166808  27.823  21.759   5.943  0.3416 -0.0028 -0.0699
    1OPC    GL266809  27.845  21.727   5.687 -0.2021  0.1943 -0.1221
    1OPC    C1B66810  27.863  21.798   5.159  0.0963 -0.3772 -0.2109
    1OPC    D2B66811  27.917  21.989   4.714  0.1947 -0.1133  0.0352
    1OPC    C3B66812  28.194  22.216   4.471 -0.2964 -0.2536  0.0000
    1OPC    C4B66813  28.263  22.602   4.146 -0.3593 -0.0991 -0.3451
    1OPC    NC366814  14.293  23.618   6.776 -0.0850  0.2162  0.0980
    1OPC    PO466815  14.262  23.992   6.762 -0.3016  0.0911  0.1809
    1OPC    GL166816  14.457  24.362   6.610 -0.3169  0.1803 -0.1000
    1OPC    GL266817  14.633  24.567   6.523 -0.2210  0.1511  0.0346
    1OPC    C1B66818  14.580  24.731   6.040 -0.0835  0.1042  0.3587
    1OPC    D2B66819  14.469  24.980   5.570 -0.0514 -0.1152 -0.2036
    1OPC    C3B66820  14.258  25.282   5.473  0.0856 -0.1091 -0.0855
    1OPC    C4B66821  13.924  25.376   5.286 -0.1397  0.0859  0.3071
    1OPC    NC366822  22.927   8.707   7.025 -0.0513 -0.0272  0.2766
    1OPC    PO466823  23.095   9.072   7.002 -0.0068  0.1032 -0.0931
    1OPC    GL166824  22.962   9.156   6.676  0.0269  0.2639 -0.1130
    1OPC    GL266825  22.971   9.172   6.305  0.0867  0.0365 -0.0235
    1OPC    C1B66826  22.811   8.955   5.911 -0.1189 -0.2899  0.1470
    1OPC    D2B66827  22.769   8.705   5.529  0.0755  0.0382 -0.0342
    1OPC    C3B66828  23.150   8.863   5.352  0.1999 -0.0668  0.1180
    1OPC    C4B66829  23.343   9.020   5.018  0.0592 -0.2674  0.4035
    1OPC    NC366830  24.716  21.403   6.998 -0.2115 -0.0490 -0.0181
    1OPC    PO466831  24.366  21.777   6.798  0.0725  0.1169 -0.1827
    1OPC    GL166832  24.423  21.867   6.356  0.1005 -0.0676 -0.1071
    1OPC    GL266833  24.231  22.028   6.024 -0.0997  0.1404 -0.0093
    1OPC    C1B66834  24.060  22.158   5.559 -0.0464  0.2951 -0.2325
    1OPC    D2B66835  24.105  22.171   5.105 -0.1390 -0.0301  0.1460
    1OPC    C3B66836  24.537  22.110   4.915 -0.1182 -0.0310 -0.2595
    1OPC    C4B66837  24.652  22.119   4.540 -0.2405  0.0839  0.0587
    1OPC    NC366838   9.539   4.532   7.112 -0.1707  0.1304 -0.3808
    1OPC    PO466839   9.853   4.826   7.321  0.3044 -0.0332 -0.0091
    1OPC    GL166840   9.967   4.692   6.921  0.2052 -0.0574  0.0359
    1OPC    GL266841   9.768   4.695   6.701 -0.6664  0.1510  0.1238
    1OPC    C1B66842   9.926   4.893   6.200  0.0423  0.1385  0.0742
    1OPC    D2B66843  10.251   4.696   6.050 -0.2634 -0.0104  0.0996
    1OPC    C3B66844  10.313   4.169   6.023 -0.1953 -0.0328  0.0969
    1OPC    C4B66845  10.444   3.705   5.861 -0.2378 -0.1172 -0.2184
    1OPC    NC366846  23.013  22.152   7.400 -0.4317 -0.1222 -0.1630
    1OPC    PO466847  23.170  21.998   7.096  0.0314 -0.0749 -0.0247
    1OPC    GL166848  23.295  21.973   6.662  0.1291 -0.0679 -0.1726
    1OPC    GL266849  23.422  22.061   6.415  0.1665 -0.1738 -0.3620
    1OPC    C1B66850  23.415  22.171   6.067 -0.0114 -0.1001  0.1999
    1OPC    D2B66851  23.524  22.201   5.636 -0.1296 -0.1356  0.0562
    1OPC    C3B66852  23.646  21.958   5.333  0.1640  0.0906 -0.0277
    1OPC    C4B66853  23.950  21.674   5.259 -0.2663  0.1220  0.3109
    1OPC    NC366854  28.355  28.231   6.598 -0.1111  0.4271  0.0228
    1OPC    PO466855  28.458  28.625   6.627  0.1330  0.0435 -0.2381
    1OPC    GL166856  28.470  28.651   6.164  0.0468 -0.2598  0.2475
    1OPC    GL266857  28.573  28.564   5.886  0.2324 -0.3007  0.0851
    1OPC    C1B66858  28.727  28.531   5.332  0.0706 -0.3897 -0.0794
    1OPC    D2B66859  28.790  28.468   4.773  0.1217 -0.2472  0.0719
    1OPC    C3B66860  28.798  28.831   4.670 -0.2336  0.2453  0.0259
    1OPC    C4B66861  29.213  29.099   4.677 -0.1391  0.0115 -0.0494
    1OPC    NC366862  11.070   4.919   7.163 -0.0882 -0.0882  0.1847
    1OPC    PO466863  10.959   5.320   7.275  0.0022 -0.0274 -0.1693
    1OPC    GL166864  10.742   5.210   6.853  0.1901 -0.1127 -0.2245
    1OPC    GL266865  10.737   5.131   6.471  0.2097  0.1619 -0.0436
    1OPC    C1B66866  10.757   4.970   6.100  0.2301  0.2801  0.2165
    1OPC    D2B66867  10.545   4.903   5.682 -0.1222  0.1981 -0.1518
    1OPC    C3B66868  10.839   4.833   5.364  0.0754 -0.1163  0.0807
    1OPC    C4B66869  11.097   4.510   5.293  0.1425 -0.0840  0.2430
    1OPC    NC366870  13.198   3.725   7.879 -0.1485  0.2455  0.1820
    1OPC    PO466871  13.182   3.326   7.659 -0.1705 -0.0288 -0.1459
    1OPC    GL166872  13.151   3.580   7.327 -0.1136 -0.0931  0.0543
    1OPC    GL266873  13.126   3.596   6.948  0.1394  0.1112 -0.0503
    1OPC    C1B66874  12.742   3.429   6.675  0.0133 -0.3227  0.1498
    1OPC    D2B66875  12.373   3.348   6.521  0.2261  0.1641  0.1258
    1OPC    C3B66876  12.165   2.864   6.512 -0.0982 -0.2840  0.2034
    1OPC    C4B66877  11.906   2.609   6.610  0.1203  0.1169  0.1776
    1OPC    NC366878   6.101  11.238   6.791  0.1614 -0.1509  0.0776
    1OPC    PO466879   5.737  11.131   6.626 -0.2190  0.2942  0.1317
    1OPC    GL166880   5.877  10.712   6.421 -0.2367 -0.0252 -0.0262
    1OPC    GL266881   5.929  10.593   6.115  0.1654  0.1324 -0.2006
    1OPC    C1B66882   5.885  10.702   5.668  0.1314 -0.2601  0.0165
    1OPC    D2B66883   5.976  10.926   5.302 -0.1679 -0.0557 -0.1532
    1OPC    C3B66884   6.006  10.545   5.121 -0.1863  0.0427  0.4238
    1OPC    C4B66885   6.218  10.115   5.030 -0.3788  0.0422  0.1489
    1OPC    NC366886  10.383   2.402   7.899 -0.1259 -0.2508  0.1071
    1OPC    PO466887  10.342   2.278   7.487  0.1582  0.0015 -0.1276
    1OPC    GL166888  10.462   2.319   7.067 -0.1264 -0.2248  0.4265
    1OPC    GL266889  10.638   2.391   6.716  0.0563 -0.0252  0.3120
    1OPC    C1B66890  10.975   2.419   6.555 -0.0385 -0.0925 -0.1145
    1OPC    D2B66891  11.436   2.298   6.386 -0.1731 -0.0660 -0.0696
    1OPC    C3B66892  11.437   2.487   5.930  0.0289 -0.4105 -0.0120
    1OPC    C4B66893  11.331   2.427   5.510 -0.2094 -0.2324  0.1370
    1OPC    NC366894  25.851  12.089   6.630 -0.0062 -0.1573 -0.4780
    1OPC    PO466895  25.898  12.037   6.180 -0.0039  0.1463 -0.3124
    1OPC    GL166896  26.076  12.033   5.857 -0.3221  0.0417  0.0509
    1OPC    GL266897  26.102  12.073   5.535  0.1423  0.2420 -0.0721
    1OPC    C1B66898  26.168  12.313   5.186  0.4061  0.2448 -0.3762
    1OPC    D2B66899  26.400  12.067   4.896 -0.1418  0.0595  0.0132
    1OPC    C3B66900  26.653  11.866   4.745 -0.1484  0.1867  0.0009
    1OPC    C4B66901  26.777  12.069   4.399 -0.1071  0.0246  0.3217
    1OPC    NC366902  27.921  27.057   6.759  0.0093 -0.1332  0.1011
    1OPC    PO466903  27.966  26.648   6.594  0.0572 -0.0432 -0.2027
    1OPC    GL166904  28.209  26.831   6.289  0.1123 -0.0488  0.2064
    1OPC    GL266905  28.240  26.871   5.968 -0.2180 -0.0523 -0.2030
    1OPC    C1B66906  28.275  26.800   5.588  0.2200  0.5086 -0.0203
    1OPC    D2B66907  28.073  27.055   5.231 -0.2512  0.0209 -0.3826
    1OPC    C3B66908  27.619  27.261   5.206  0.0788  0.3140 -0.5160
    1OPC    C4B66909  27.208  27.133   5.200 -0.0909  0.1868 -0.1925
    1OPC    NC366910  13.722   2.092   7.352 -0.1123 -0.2363 -0.4052
    1OPC    PO466911  13.411   1.821   7.324 -0.0748 -0.0744 -0.1733
    1OPC    GL166912  13.348   2.056   7.015 -0.2281  0.0912 -0.0621
    1OPC    GL266913  13.376   2.123   6.688  0.1393  0.2437 -0.0212
    1OPC    C1B66914  13.472   1.717   6.595  0.0411 -0.2292  0.2086
    1OPC    D2B66915  13.867   1.584   6.298  0.0020  0.0920 -0.0538
    1OPC    C3B66916  14.131   1.845   6.015  0.2126  0.0523 -0.1314
    1OPC    C4B66917  14.339   1.733   5.685 -0.2600 -0.3058  0.1317
    1OPC    NC366918  27.512   9.332   6.608  0.2217 -0.2269 -0.1734
    1OPC    PO466919  27.114   9.315   6.387  0.4130 -0.0953  0.4071
    1OPC    GL166920  27.083   9.065   6.029  0.1814 -0.0638  0.1307
    1OPC    GL266921  27.105   8.819   5.768  0.0985 -0.0524 -0.0776
    1OPC    C1B66922  27.091   8.761   5.319  0.1351  0.3075  0.1655
    1OPC    D2B66923  27.127   8.943   4.820 -0.0233  0.1697  0.0733
    1OPC    C3B66924  27.487   8.807   4.541 -0.0308  0.1760 -0.2000
    1OPC    C4B66925  27.874   9.041   4.371 -0.1869 -0.3791 -0.0616
    1OPC    NC366926   3.613   4.768   6.614  0.4441 -0.0017 -0.1110
    1OPC    PO466927   3.343   4.696   6.238 -0.1412 -0.0907  0.2019
    1OPC    GL166928   3.560   4.591   5.848  0.0192  0.0671  0.2636
    1OPC    GL266929   3.611   4.611   5.571  0.0581 -0.2610 -0.3584
    1OPC    C1B66930   3.619   4.768   5.051 -0.2451 -0.0010  0.1542
    1OPC    D2B66931   3.838   4.741   4.604  0.0347  0.1536 -0.1770
    1OPC    C3B66932   3.586   4.677   4.184  0.4791 -0.1542 -0.3027
    1OPC    C4B66933   3.215   4.806   3.880  0.1883  0.1548 -0.0796
    1OPC    NC366934  14.137  26.851   8.359 -0.1706  0.3134 -0.2673
    1OPC    PO466935  13.833  26.674   8.306 -0.3224  0.1656  0.3034
    1OPC    GL166936  13.694  26.490   7.960  0.0762  0.0222  0.0227
    1OPC    GL266937  13.505  26.510   7.727 -0.1538 -0.0351  0.1094
    1OPC    C1B66938  13.444  26.494   7.337  0.0861 -0.5553 -0.2895
    1OPC    D2B66939  13.378  26.549   6.866 -0.0051  0.1815 -0.1114
    1OPC    C3B66940  12.982  26.563   6.601 -0.0428 -0.1284  0.0421
    1OPC    C4B66941  12.928  26.471   6.188 -0.3445 -0.1318  0.4975
    1OPC    NC366942   9.740  26.664   7.269 -0.1568  0.0745 -0.0137
    1OPC    PO466943  10.183  26.695   7.322  0.0220 -0.1042 -0.3649
    1OPC    GL166944  10.446  26.752   6.867 -0.1375  0.1561  0.3514
    1OPC    GL266945  10.612  26.814   6.657 -0.1854 -0.0774  0.0726
    1OPC    C1B66946  10.474  26.717   6.223  0.1619 -0.2096  0.0109
    1OPC    D2B66947  10.288  26.952   5.794 -0.3204 -0.0265  0.1254
    1OPC    C3B66948  10.546  27.105   5.735  0.1555 -0.0926  0.0354
    1OPC    C4B66949  10.786  27.307   5.461  0.0711  0.2266 -0.0065
    1OPC    NC366950  22.553   7.679   7.227 -0.0063  0.1766  0.3334
    1OPC    PO466951  22.871   7.733   6.926  0.0624 -0.0149 -0.2790
    1OPC    GL166952  22.738   7.791   6.445 -0.1119 -0.2347  0.0180
    1OPC    GL266953  22.633   7.880   6.190  0.0068  0.4282 -0.2629
    1OPC    C1B66954  22.625   7.645   5.724  0.1824 -0.2888 -0.1109
    1OPC    D2B66955  22.596   7.569   5.255 -0.1668 -0.2226 -0.0209
    1OPC    C3B66956  22.715   7.966   5.124  0.3376  0.0751  0.0723
    1OPC    C4B66957  22.995   8.264   5.278  0.0802  0.3612 -0.1217
    1OPC    NC366958   2.942  22.307   6.470  0.1287 -0.0665 -0.2119
    1OPC    PO466959   2.687  22.132   6.197  0.0741 -0.1683 -0.3697
    1OPC    GL166960   2.540  21.722   5.996  0.0177 -0.0693 -0.1983
    1OPC    GL266961   2.601  21.596   5.732 -0.0295 -0.0237  0.2168
    1OPC    C1B66962   2.677  21.697   5.320 -0.0128  0.1416 -0.1166
    1OPC    D2B66963   2.651  21.454   4.929  0.0813  0.1074  0.1342
    1OPC    C3B66964   2.736  21.526   4.477 -0.1171 -0.0261 -0.1185
    1OPC    C4B66965   2.541  21.877   4.206  0.2329  0.1172  0.0629
    1OPC    NC366966   8.241  20.048   6.536 -0.2737 -0.1138 -0.0187
    1OPC    PO466967   8.355  20.278   6.297 -0.2273 -0.3971  0.1393
    1OPC    GL166968   8.701  20.301   5.927 -0.0779 -0.2534 -0.1614
    1OPC    GL266969   8.909  20.450   5.671 -0.2426 -0.0050  0.2175
    1OPC    C1B66970   8.917  20.565   5.347  0.1503  0.4465 -0.0061
    1OPC    D2B66971   9.037  20.499   4.907  0.0423 -0.1268 -0.1690
    1OPC    C3B66972   8.855  20.744   4.562 -0.1018 -0.0292  0.2314
    1OPC    C4B66973   8.897  21.137   4.496 -0.0074  0.0515 -0.0147
    1OPC    NC366974   4.595  17.735   5.774 -0.0605 -0.0896  0.1506
    1OPC    PO466975   4.446  17.605   6.162  0.3521 -0.0730 -0.1966
    1OPC    GL166976   4.086  17.652   5.949  0.1885  0.0700  0.0068
    1OPC    GL266977   4.054  17.642   5.642 -0.0125  0.0403  0.2371
    1OPC    C1B66978   4.331  17.758   5.234 -0.0092  0.1073  0.3625
    1OPC    D2B66979   4.302  17.919   4.819 -0.3060  0.0337 -0.1340
    1OPC    C3B66980   4.383  17.580   4.530 -0.1729 -0.2233 -0.0370
    1OPC    C4B66981   4.709  17.420   4.232 -0.0784 -0.1934 -0.0869
    1OPC    NC366982   4.037  16.789   6.499 -0.2605 -0.3522  0.0093
    1OPC    PO466983   3.787  16.907   6.097 -0.1066  0.0593  0.0265
    1OPC    GL166984   3.660  16.724   5.732  0.0951  0.2220  0.0044
    1OPC    GL266985   3.496  16.738   5.406 -0.0599 -0.2385  0.0316
    1OPC    C1B66986   3.132  16.952   5.345  0.1465  0.0840 -0.0003
    1OPC    D2B66987   2.765  17.065   5.152 -0.3995 -0.0197 -0.3605
    1OPC    C3B66988   2.774  16.714   4.902  0.2208 -0.0665 -0.1411
    1OPC    C4B66989   2.972  16.754   4.518  0.0321  0.2435 -0.0255
    1OPC    NC366990  24.827  13.681   6.314  0.3772 -0.1308 -0.0759
    1OPC    PO466991  24.771  13.412   6.017 -0.0650  0.1824  0.3329
    1OPC    GL166992  24.796  13.613   5.663  0.0289 -0.2327 -0.0281
    1OPC    GL266993  24.825  13.626   5.348  0.0745 -0.4387 -0.1840
    1OPC    C1B66994  24.593  13.529   4.973  0.2719 -0.0562  0.0380
    1OPC    D2B66995  24.291  13.468   4.537 -0.0237 -0.0802 -0.1257
    1OPC    C3B66996  23.998  13.714   4.265  0.0051  0.1943  0.0137
    1OPC    C4B66997  23.825  14.072   4.067  0.2587 -0.0694  0.1354
    1OPC    NC366998   7.657  28.834   6.916 -0.1195 -0.2219 -0.2010
    1OPC    PO466999   8.002  28.997   7.261 -0.0182  0.0495 -0.0485
    1OPC    GL167000   8.209  28.792   6.854 -0.1437 -0.6501 -0.0977
    1OPC    GL267001   8.395  28.668   6.592 -0.1095 -0.2437  0.2455
    1OPC    C1B67002   8.423  28.810   6.193  0.2342 -0.0448  0.1471
    1OPC    D2B67003   8.509  28.837   5.773 -0.0750 -0.0304 -0.0045
    1OPC    C3B67004   8.918  28.951   5.665 -0.1101  0.2724 -0.2621
    1OPC    C4B67005   9.170  29.354   5.602 -0.1604 -0.2370 -0.0744
    1OPC    NC367006  22.421  22.156   6.588  0.0067  0.1854 -0.1450
    1OPC    PO467007  22.726  22.119   6.951  0.0046 -0.0306  0.2815
    1OPC    GL167008  22.828  21.757   6.685  0.0857  0.3175  0.0657
    1OPC    GL267009  22.734  21.375   6.499 -0.0865 -0.2015  0.0753
    1OPC    C1B67010  22.990  21.248   6.172  0.0561 -0.1406 -0.0766
    1OPC    D2B67011  23.186  21.314   5.777 -0.1436  0.2107 -0.1541
    1OPC    C3B67012  23.336  20.943   5.564 -0.0802  0.0182 -0.1901
    1OPC    C4B67013  23.706  20.918   5.239  0.5863 -0.2661  0.2477
    1OPC    NC367014  27.088  12.715   6.883  0.0323  0.4315 -0.1642
    1OPC    PO467015  26.845  12.709   6.424  0.0670  0.0663 -0.2108
    1OPC    GL167016  26.793  12.316   6.243 -0.2242  0.2105 -0.0569
    1OPC    GL267017  26.984  12.289   5.954  0.0532  0.1503 -0.2605
    1OPC    C1B67018  26.948  12.475   5.521  0.1702 -0.1205  0.2980
    1OPC    D2B67019  27.054  12.645   5.222 -0.0096 -0.0268  0.0417
    1OPC    C3B67020  27.265  12.897   5.288  0.0411  0.0078  0.0886
    1OPC    C4B67021  27.295  13.232   5.072  0.0312 -0.0940 -0.1016
    1OPC    NC367022   6.347  23.801   5.949  0.0015  0.0571 -0.0752
    1OPC    PO467023   6.365  24.178   6.150 -0.0325 -0.0016 -0.0023
    1OPC    GL167024   6.512  24.551   5.873  0.0282  0.0329 -0.2963
    1OPC    GL267025   6.623  24.575   5.543 -0.1362 -0.0345 -0.0805
    1OPC    C1B67026   6.951  24.307   5.292 -0.1301  0.1916 -0.1804
    1OPC    D2B67027   6.820  23.943   5.194  0.2538  0.4688 -0.1378
    1OPC    C3B67028   7.024  23.646   4.917 -0.1030 -0.2568 -0.0023
    1OPC    C4B67029   7.006  23.277   4.662 -0.0475  0.0948 -0.0332
    1OPC    NC367030  20.994   4.760   6.704  0.0622  0.0089  0.1994
    1OPC    PO467031  21.052   4.186   6.645  0.1237 -0.1393 -0.3828
    1OPC    GL167032  20.821   4.036   6.332 -0.0689 -0.0736 -0.3116
    1OPC    GL267033  20.742   4.048   5.920  0.1223  0.0888  0.0562
    1OPC    C1B67034  20.931   3.890   5.501 -0.1595 -0.1864 -0.3109
    1OPC    D2B67035  20.707   3.870   5.052 -0.1094 -0.2071 -0.1076
    1OPC    C3B67036  20.836   4.072   4.827 -0.0762 -0.0010 -0.0755
    1OPC    C4B67037  20.842   4.355   4.544  0.1912 -0.1201  0.2663
    1OPC    NC367038  28.371   7.567   6.685  0.4346 -0.1411  0.0525
    1OPC    PO467039  27.906   7.348   6.551 -0.1649 -0.1548 -0.0354
    1OPC    GL167040  27.759   7.649   6.175 -0.0499 -0.1170 -0.0218
    1OPC    GL267041  27.661   7.811   5.924  0.2005 -0.0710 -0.2185
    1OPC    C1B67042  27.576   7.943   5.499 -0.0041 -0.0302 -0.0292
    1OPC    D2B67043  27.659   7.762   5.145 -0.0936  0.2877  0.1802
    1OPC    C3B67044  27.213   7.817   4.918  0.2272  0.1529 -0.2474
    1OPC    C4B67045  27.218   7.632   4.496  0.0709  0.2303 -0.0385
    1OPC    NC367046  15.420   5.055   7.869  0.0118 -0.0176  0.2004
    1OPC    PO467047  15.466   5.478   7.783 -0.0919 -0.1581  0.2645
    1OPC    GL167048  15.619   5.389   7.366  0.1525  0.2891  0.1325
    1OPC    GL267049  15.501   5.264   7.082  0.2232 -0.1089  0.3377
    1OPC    C1B67050  15.224   5.215   6.846  0.0910 -0.1788 -0.2123
    1OPC    D2B67051  15.167   5.571   6.434  0.1576 -0.3190  0.0200
    1OPC    C3B67052  14.774   5.623   6.206 -0.3008  0.1313  0.3157
    1OPC    C4B67053  14.598   5.631   5.815  0.1331 -0.4344 -0.0554
    1OPC    NC367054  17.016   6.380   7.743  0.2135 -0.2511  0.0815
    1OPC    PO467055  16.902   6.913   7.603  0.1032  0.0721  0.2526
    1OPC    GL167056  16.642   6.928   7.187 -0.0524  0.1017 -0.2633
    1OPC    GL267057  16.866   6.904   6.941 -0.0284 -0.2961 -0.0688
    1OPC    C1B67058  16.961   6.815   6.455  0.0069 -0.1973  0.1039
    1OPC    D2B67059  17.000   6.973   6.089 -0.1702  0.2782 -0.1743
    1OPC    C3B67060  16.772   6.785   5.819  0.1825 -0.1184 -0.0725
    1OPC    C4B67061  16.823   6.613   5.456 -0.2579  0.0657 -0.1941
    1OPC    NC367062  23.823  12.123   6.898 -0.0331  0.1000  0.0022
    1OPC    PO467063  24.055  12.037   6.481 -0.1922 -0.1080  0.2440
    1OPC    GL167064  24.038  11.813   5.968 -0.0804  0.0747  0.2723
    1OPC    GL267065  24.112  11.747   5.673  0.1528 -0.0455  0.1704
    1OPC    C1B67066  24.290  11.494   5.336 -0.0995  0.1386 -0.3540
    1OPC    D2B67067  24.416  11.443   4.920  0.2410  0.1910  0.2282
    1OPC    C3B67068  24.531  11.128   4.627  0.1487 -0.1090 -0.0160
    1OPC    C4B67069  24.814  10.832   4.574 -0.0087 -0.1925 -0.3177
    1OPC    NC367070  22.815   5.690   6.362  0.1746  0.3737 -0.0976
    1OPC    PO467071  23.200   5.841   6.492 -0.2021  0.0233 -0.2066
    1OPC    GL167072  23.192   5.813   6.026  0.1753 -0.1191 -0.0818
    1OPC    GL267073  23.036   5.886   5.756  0.0597  0.0847  0.2711
    1OPC    C1B67074  22.753   6.246   5.442  0.2324 -0.0935 -0.2233
    1OPC    D2B67075  22.723   6.292   5.023 -0.0958 -0.1463  0.0080
    1OPC    C3B67076  22.644   6.690   4.797  0.1372  0.1966  0.3048
    1OPC    C4B67077  22.830   7.083   4.539 -0.1280  0.0356  0.3040
    1OPC    NC367078  22.959  26.556   7.066 -0.0210 -0.2943 -0.0810
    1OPC    PO467079  23.270  26.253   6.968 -0.1759 -0.3886  0.0749
    1OPC    GL167080  23.014  25.980   6.721  0.1599  0.2037 -0.3586
    1OPC    GL267081  22.806  25.991   6.460 -0.1124 -0.2764  0.0394
    1OPC    C1B67082  22.796  25.778   6.080  0.1458  0.0906  0.1036
    1OPC    D2B67083  22.910  25.590   5.687  0.2260  0.3493 -0.3162
    1OPC    C3B67084  22.826  26.038   5.276  0.3388 -0.0726  0.0347
    1OPC    C4B67085  22.987  26.408   5.187 -0.2095  0.1419 -0.1437
    1OPC    NC367086  25.999  26.313   6.747  0.0928  0.2375  0.2405
    1OPC    PO467087  26.117  25.876   6.772  0.3018  0.0140  0.1952
    1OPC    GL167088  26.401  25.554   6.420  0.1987 -0.1741 -0.3789
    1OPC    GL267089  26.489  25.387   6.150 -0.0576  0.1752  0.0383
    1OPC    C1B67090  26.153  25.310   5.816  0.1262 -0.0702  0.1352
    1OPC    D2B67091  26.253  25.036   5.483  0.0460  0.0267  0.3204
    1OPC    C3B67092  26.502  24.966   5.073 -0.0779  0.1669  0.1095
    1OPC    C4B67093  26.872  24.725   4.840  0.1875 -0.1849  0.1530
    1OPC    NC367094  20.352  28.131   7.452  0.0263 -0.4836 -0.2018
    1OPC    PO467095  19.994  28.222   7.221  0.2696  0.1443  0.0245
    1OPC    GL167096  19.923  28.094   6.754  0.0949  0.0051  0.0133
    1OPC    GL267097  19.637  28.174   6.591 -0.0974  0.1809 -0.1130
    1OPC    C1B67098  19.443  28.346   6.202  0.1714  0.1212  0.0077
    1OPC    D2B67099  19.221  28.213   5.846  0.0541  0.0279  0.1816
    1OPC    C3B67100  19.416  28.104   5.452 -0.3808  0.0715  0.4179
    1OPC    C4B67101  19.681  28.224   5.096 -0.2455  0.1225 -0.2632
    1OPC    NC367102   7.596  28.779   7.472  0.0454  0.0869  0.1926
    1OPC    PO467103   7.212  28.809   7.273 -0.0823 -0.1910  0.0707
    1OPC    GL167104   7.195  28.992   6.827 -0.0032 -0.1134  0.0982
    1OPC    GL267105   7.257  28.820   6.545 -0.1396 -0.2005 -0.0266
    1OPC    C1B67106   7.265  28.621   6.148  0.0349  0.0213  0.3026
    1OPC    D2B67107   7.280  28.556   5.772 -0.0121  0.2225 -0.0628
    1OPC    C3B67108   6.926  28.530   5.409 -0.0950  0.0366 -0.0020
    1OPC    C4B67109   6.801  28.735   4.990 -0.2387 -0.0322 -0.2725
    1OPC    NC367110  22.447  21.119   6.857 -0.2436  0.2507  0.0949
    1OPC    PO467111  22.742  20.938   6.742  0.1429 -0.0207 -0.0868
    1OPC    GL167112  23.101  20.978   6.605 -0.1367 -0.0055 -0.0136
    1OPC    GL267113  23.399  20.897   6.452  0.0397  0.0120  0.2077
    1OPC    C1B67114  23.347  20.702   6.005 -0.2669  0.0911  0.0433
    1OPC    D2B67115  23.122  20.439   5.615 -0.0215  0.0276 -0.1374
    1OPC    C3B67116  23.282  20.271   5.147  0.1514  0.3178  0.1500
    1OPC    C4B67117  23.294  20.297   4.801  0.2223 -0.1643  0.1986
    1OPC    NC367118  24.958  29.315   6.339  0.4335  0.1762  0.0813
    1OPC    PO467119  25.300  29.262   6.655  0.0210  0.0206  0.1134
    1OPC    GL167120  25.445  29.089   6.341 -0.1311 -0.1854  0.0307
    1OPC    GL267121  25.397  29.159   6.038 -0.2113  0.3411  0.2428
    1OPC    C1B67122  25.362  28.973   5.698 -0.1408 -0.2215 -0.2584
    1OPC    D2B67123  25.028  29.013   5.393 -0.1161  0.1409 -0.1563
    1OPC    C3B67124  24.988  29.363   5.100  0.0910 -0.1969  0.0068
    1OPC    C4B67125  24.866  29.636   4.815 -0.1431 -0.1470  0.2873
    1OPC    NC367126   6.367  12.729   7.061  0.0552 -0.3351  0.0947
    1OPC    PO467127   6.300  12.266   7.036  0.1496 -0.1780  0.0321
    1OPC    GL167128   6.263  12.094   6.716 -0.0651 -0.1507  0.3537
    1OPC    GL267129   6.418  12.046   6.467 -0.1831 -0.0469  0.0647
    1OPC    C1B67130   6.455  11.858   6.027 -0.0086 -0.0215 -0.0541
    1OPC    D2B67131   6.154  11.638   5.895  0.2147  0.4221  0.2378
    1OPC    C3B67132   5.850  11.860   5.514  0.1715  0.0290  0.1079
    1OPC    C4B67133   5.728  12.140   5.154  0.0818  0.5855 -0.1422
    1OPC    NC367134   4.491  16.365   6.996 -0.1575  0.1554  0.0766
    1OPC    PO467135   4.769  16.185   6.719  0.0093  0.0120 -0.0970
    1OPC    GL167136   4.548  15.896   6.471 -0.0771  0.1629 -0.1610
    1OPC    GL267137   4.352  15.821   6.187  0.4997 -0.2719  0.3876
    1OPC    C1B67138   4.429  15.707   5.809  0.0015 -0.1309  0.1326
    1OPC    D2B67139   4.789  15.413   5.696 -0.0009  0.1435  0.1801
    1OPC    C3B67140   4.767  15.024   5.553  0.2553  0.1144  0.1413
    1OPC    C4B67141   4.838  14.675   5.460  0.2404 -0.1203 -0.0377
    1OPC    NC367142  18.276  27.930   7.360 -0.2911 -0.1738  0.1203
    1OPC    PO467143  18.289  27.431   7.417  0.0757  0.2240 -0.3308
    1OPC    GL167144  18.156  27.537   7.058  0.0796  0.1178  0.2518
    1OPC    GL267145  18.298  27.704   6.806 -0.0201 -0.0921  0.1058
    1OPC    C1B67146  18.262  27.796   6.311  0.1494 -0.0869  0.1981
    1OPC    D2B67147  18.083  28.197   6.050 -0.1432 -0.0033 -0.0209
    1OPC    C3B67148  18.311  28.190   5.641  0.1622 -0.0215  0.0136
    1OPC    C4B67149  18.471  28.033   5.265 -0.0401 -0.1903  0.0106
    1OPC    NC367150  11.648   0.837   7.781 -0.0031 -0.1114  0.2266
    1OPC    PO467151  11.633   0.398   7.785 -0.1231 -0.1224  0.5832
    1OPC    GL167152  11.702   0.533   7.383  0.2648 -0.0161  0.0853
    1OPC    GL267153  11.763   0.701   7.112 -0.1878 -0.1498  0.1927
    1OPC    C1B67154  11.922   0.749   6.709  0.0326 -0.0072  0.3278
    1OPC    D2B67155  12.148   0.446   6.566  0.0683 -0.1741  0.2607
    1OPC    C3B67156  11.922   0.021   6.385 -0.2970 -0.0106 -0.0166
    1OPC    C4B67157  11.665  -0.326   6.295  0.0027 -0.1689  0.1041
    1OPC    NC367158   6.862   1.678   7.477 -0.2299 -0.0752  0.0351
    1OPC    PO467159   7.227   1.809   7.298 -0.0019  0.1940  0.1993
    1OPC    GL167160   7.254   1.645   6.828  0.1195  0.2234 -0.3223
    1OPC    GL267161   7.592   1.561   6.655  0.1438  0.1652  0.1430
    1OPC    C1B67162   7.870   1.596   6.363  0.3203  0.2950 -0.1282
    1OPC    D2B67163   7.994   1.451   6.013  0.2764  0.1139 -0.0966
    1OPC    C3B67164   7.776   1.420   5.593 -0.0605  0.5556  0.1974
    1OPC    C4B67165   7.475   1.526   5.290  0.2647  0.0195  0.3008
    1OPC    NC367166  28.499  19.273   6.728 -0.0014  0.1378  0.1439
    1OPC    PO467167  28.513  18.925   6.421  0.3043 -0.0652 -0.1101
    1OPC    GL167168  28.464  19.032   5.927  0.1374  0.1474 -0.0601
    1OPC    GL267169  28.292  18.990   5.590  0.2364  0.1083  0.4089
    1OPC    C1B67170  28.122  18.961   5.187 -0.0634  0.1995 -0.1383
    1OPC    D2B67171  28.056  19.068   4.739  0.0623  0.1186  0.0687
    1OPC    C3B67172  28.106  19.436   4.592  0.0332 -0.1120  0.0585
    1OPC    C4B67173  28.235  19.836   4.636  0.1343  0.0233 -0.1432
    1OPC    NC367174  20.837   0.840   6.212 -0.0018 -0.2947  0.0986
    1OPC    PO467175  21.057   1.291   6.420  0.1824 -0.0510 -0.0614
    1OPC    GL167176  20.775   1.553   6.078  0.4347 -0.2132  0.1397
    1OPC    GL267177  20.726   1.598   5.779  0.0808 -0.0785 -0.0079
    1OPC    C1B67178  20.724   1.455   5.440  0.0010  0.3152 -0.2607
    1OPC    D2B67179  20.449   1.351   5.113  0.0397  0.0044 -0.0204
    1OPC    C3B67180  20.422   1.145   4.692  0.1830  0.0390 -0.0642
    1OPC    C4B67181  20.306   0.840   4.424  0.0312  0.1380 -0.0939
    1OPC    NC367182  11.562  22.628   6.314  0.0329  0.2581 -0.2275
    1OPC    PO467183  11.122  22.722   6.594  0.2923  0.0468 -0.0680
    1OPC    GL167184  11.020  22.671   6.119  0.0341  0.0542 -0.0268
    1OPC    GL267185  11.240  22.795   5.889 -0.3370 -0.2767 -0.1293
    1OPC    C1B67186  11.503  22.608   5.674 -0.1183  0.0631  0.0095
    1OPC    D2B67187  11.564  22.247   5.399 -0.1834 -0.1299 -0.1206
    1OPC    C3B67188  11.402  21.804   5.267  0.4540  0.0988 -0.1213
    1OPC    C4B67189  11.238  21.403   5.410  0.0488  0.0288 -0.1196
    1OPC    NC367190  24.784  17.213   7.272  0.1300  0.1950 -0.2663
    1OPC    PO467191  24.623  17.003   6.960 -0.0162  0.2707 -0.0657
    1OPC    GL167192  24.618  17.031   6.417  0.0582 -0.1510 -0.0687
    1OPC    GL267193  24.563  17.229   6.049 -0.1612  0.0265  0.2026
    1OPC    C1B67194  24.226  17.220   5.657  0.1992  0.1536 -0.1140
    1OPC    D2B67195  24.099  17.109   5.240  0.3118 -0.0294 -0.0814
    1OPC    C3B67196  24.032  17.347   4.932 -0.1967 -0.2018 -0.2784
    1OPC    C4B67197  24.029  17.502   4.507 -0.2796 -0.1242  0.2863
    1OPC    NC367198  27.974  14.789   5.932  0.2147  0.1149 -0.1066
    1OPC    PO467199  27.754  14.976   5.595 -0.0649  0.0138  0.1657
    1OPC    GL167200  27.381  15.144   5.476  0.1021 -0.1035  0.1102
    1OPC    GL267201  27.166  15.158   5.410  0.1317  0.0186 -0.1196
    1OPC    C1B67202  26.994  15.215   5.071  0.1771  0.1337  0.3758
    1OPC    D2B67203  26.927  15.227   4.622 -0.1276  0.1431 -0.1059
    1OPC    C3B67204  27.039  14.874   4.379 -0.4224  0.1224 -0.3200
    1OPC    C4B67205  27.017  14.505   4.248  0.4540  0.0668 -0.1172
    1OPC    NC367206  20.373   0.539   6.869 -0.0030 -0.1453 -0.0137
    1OPC    PO467207  20.319   0.692   6.466  0.0084  0.1242  0.2266
    1OPC    GL167208  19.883   0.669   6.323 -0.1495 -0.1007 -0.2544
    1OPC    GL267209  19.591   0.559   6.305  0.1174  0.1718  0.3033
    1OPC    C1B67210  19.288   0.259   6.111 -0.0484  0.1295  0.2962
    1OPC    D2B67211  19.335  -0.188   5.923 -0.1350 -0.3882 -0.1018
    1OPC    C3B67212  19.327  -0.596   5.824 -0.4059  0.3099  0.0299
    1OPC    C4B67213  19.185  -0.685   5.456 -0.0659 -0.1841 -0.2169
    1OPC    NC367214  26.358   8.809   6.402 -0.0064 -0.0415  0.0680
    1OPC    PO467215  26.017   8.980   6.391 -0.0841  0.2007 -0.1608
    1OPC    GL167216  25.920   8.572   6.185  0.1504  0.2686 -0.1128
    1OPC    GL267217  25.667   8.601   5.966  0.0926 -0.0397  0.2002
    1OPC    C1B67218  25.259   8.845   5.723  0.1060  0.0235  0.2510
    1OPC    D2B67219  25.262   9.080   5.321 -0.0791 -0.1615 -0.2297
    1OPC    C3B67220  24.991   9.387   5.137  0.0977 -0.2316  0.0704
    1OPC    C4B67221  24.904   9.672   5.100  0.0127 -0.1587  0.0725
    1OPC    NC367222   1.525  26.862   6.869 -0.1389 -0.2666  0.0308
    1OPC    PO467223   1.912  26.902   6.500 -0.1509 -0.1084 -0.1776
    1OPC    GL167224   1.529  26.942   6.410  0.0858 -0.0204  0.0599
    1OPC    GL267225   1.399  26.934   6.196  0.1492 -0.1247 -0.0708
    1OPC    C1B67226   1.012  26.940   5.973 -0.3376 -0.3257 -0.0212
    1OPC    D2B67227   0.966  26.875   5.515  0.1374  0.0753 -0.1403
    1OPC    C3B67228   0.748  26.494   5.353 -0.0680 -0.1323 -0.1603
    1OPC    C4B67229   0.844  26.171   5.400 -0.2175 -0.0652 -0.3575
    1OPC    NC367230  24.802  16.223   6.348  0.4007 -0.0093  0.0804
    1OPC    PO467231  24.947  16.276   5.956  0.1830  0.0675  0.0570
    1OPC    GL167232  25.124  16.112   5.591 -0.1473 -0.2041 -0.1162
    1OPC    GL267233  25.431  15.984   5.338  0.0238 -0.0133  0.0978
    1OPC    C1B67234  25.421  15.979   4.873 -0.1211 -0.1699  0.0655
    1OPC    D2B67235  25.215  15.935   4.514  0.2358 -0.2147  0.0031
    1OPC    C3B67236  25.118  16.137   4.137  0.0452  0.4426 -0.2181
    1OPC    C4B67237  24.804  16.148   3.745  0.0685 -0.2073  0.2833
    1OPC    NC367238  14.576   7.125   7.943 -0.0559  0.0501 -0.2540
    1OPC    PO467239  14.556   7.511   7.717  0.0898  0.3465  0.2701
    1OPC    GL167240  14.312   7.284   7.443 -0.1935 -0.1602 -0.0007
    1OPC    GL267241  13.993   7.174   7.353 -0.4456 -0.3074  0.3138
    1OPC    C1B67242  13.807   7.341   7.065 -0.0734  0.0341 -0.0131
    1OPC    D2B67243  13.409   7.445   6.782 -0.2120 -0.2008  0.0532
    1OPC    C3B67244  13.370   7.734   6.514 -0.3660 -0.1196 -0.0902
    1OPC    C4B67245  13.147   7.800   6.054  0.2102  0.2776 -0.1942
    1OPC    NC367246  28.594  16.234   6.450  0.2129 -0.2528  0.0241
    1OPC    PO467247  28.691  15.787   6.470  0.1222  0.1182 -0.0054
    1OPC    GL167248  28.731  15.970   5.991 -0.1970  0.0125  0.3407
    1OPC    GL267249  28.861  16.046   5.742  0.2797 -0.2839 -0.0128
    1OPC    C1B67250  28.817  16.166   5.295 -0.0757  0.1356 -0.0453
    1OPC    D2B67251  29.035  15.968   4.964  0.0925 -0.1184 -0.0889
    1OPC    C3B67252  28.964  15.766   4.545 -0.2644  0.0293 -0.1623
    1OPC    C4B67253  29.146  15.603   4.255 -0.0584 -0.0456  0.2650
    1OPC    NC367254   5.526  23.688   6.095 -0.1826 -0.0530  0.1213
    1OPC    PO467255   5.368  23.332   5.811 -0.2701  0.3065 -0.2970
    1OPC    GL167256   5.227  23.001   5.579  0.1111 -0.1144  0.0091
    1OPC    GL267257   5.252  22.762   5.367 -0.2218 -0.0427  0.1165
    1OPC    C1B67258   5.083  22.639   5.026  0.1770 -0.0031 -0.1375
    1OPC    D2B67259   4.935  22.568   4.594 -0.3431 -0.3139 -0.1555
    1OPC    C3B67260   5.134  22.296   4.415 -0.0291  0.0842  0.1998
    1OPC    C4B67261   5.561  22.383   4.257  0.0942 -0.0600 -0.1886
    1OPC    NC367262  10.313   0.314   7.366 -0.2085 -0.4264 -0.3830
    1OPC    PO467263  10.418   0.831   7.396 -0.0180 -0.0747  0.1065
    1OPC    GL167264  10.757   0.574   7.338 -0.0997 -0.0262  0.2500
    1OPC    GL267265  10.820   0.417   7.076  0.0064  0.1400 -0.0172
    1OPC    C1B67266  10.945   0.353   6.549 -0.0711  0.1599 -0.3006
    1OPC    D2B67267  11.063   0.455   6.104 -0.0434 -0.0606  0.0191
    1OPC    C3B67268  10.857   0.151   5.772  0.1692  0.0434 -0.1810
    1OPC    C4B67269  11.079  -0.242   5.529  0.0967  0.2347 -0.0055
    1OPC    NC367270   9.841  23.094   6.018  0.1909  0.1786  0.3666
    1OPC    PO467271   9.498  23.331   6.170  0.1290 -0.2413 -0.0230
    1OPC    GL167272   9.445  23.770   5.944 -0.2058  0.0228 -0.1407
    1OPC    GL267273   9.456  23.886   5.679  0.0627  0.1251  0.0659
    1OPC    C1B67274   9.551  24.028   5.302 -0.1585 -0.2473  0.2153
    1OPC    D2B67275   9.485  24.071   4.855  0.1541  0.0682  0.1155
    1OPC    C3B67276   9.646  24.477   4.809  0.1969 -0.3557  0.1359
    1OPC    C4B67277   9.742  24.785   4.631 -0.1613 -0.0133 -0.2256
    1OPC    NC367278  18.013  27.056   7.642  0.1754 -0.2851 -0.1586
    1OPC    PO467279  17.698  27.425   7.650  0.0607 -0.4242 -0.0016
    1OPC    GL167280  17.736  27.289   7.246  0.1670 -0.0178  0.2419
    1OPC    GL267281  17.623  27.314   6.927  0.0410 -0.0147  0.1177
    1OPC    C1B67282  17.318  27.289   6.561  0.0660 -0.0641  0.1249
    1OPC    D2B67283  17.096  27.408   6.176 -0.1055  0.0588 -0.2222
    1OPC    C3B67284  17.005  27.812   5.997 -0.1423 -0.1907 -0.0539
    1OPC    C4B67285  16.675  28.059   6.172  0.0053 -0.4513 -0.2971
    1OPC    NC367286   0.356  23.042   7.178  0.2257  0.2772 -0.1378
    1OPC    PO467287   0.091  23.025   6.864  0.1434  0.1930 -0.0652
    1OPC    GL167288   0.255  23.190   6.451 -0.0921 -0.5048  0.1041
    1OPC    GL267289   0.110  23.431   6.285 -0.1502 -0.0611 -0.1295
    1OPC    C1B67290   0.107  23.281   5.895 -0.1783  0.0720  0.0181
    1OPC    D2B67291  -0.094  22.999   5.604 -0.2724 -0.1020 -0.1306
    1OPC    C3B67292  -0.190  22.567   5.597  0.0260 -0.1108 -0.1139
    1OPC    C4B67293   0.070  22.236   5.748  0.0847  0.0447 -0.0095
    1OPC    NC367294   0.452   9.129   6.072 -0.1972 -0.0610  0.1850
    1OPC    PO467295   0.195   8.778   6.096  0.2356 -0.0446  0.1284
    1OPC    GL167296   0.157   8.734   5.691 -0.1845  0.1690  0.0558
    1OPC    GL267297   0.230   8.499   5.383  0.0779 -0.0813  0.0719
    1OPC    C1B67298   0.474   8.401   4.953  0.1700  0.4284 -0.3465
    1OPC    D2B67299   0.368   8.212   4.552  0.3175 -0.1038  0.0786
    1OPC    C3B67300   0.174   8.580   4.352 -0.0162 -0.0830 -0.1048
    1OPC    C4B67301   0.080   9.030   4.335 -0.0573  0.1215 -0.1130
    1OPC    NC367302   5.064  19.454   6.237 -0.1235  0.1391 -0.3866
    1OPC    PO467303   4.875  19.364   5.811  0.2991 -0.3592  0.0576
    1OPC    GL167304   4.963  19.706   5.534 -0.1336  0.2387 -0.2478
    1OPC    GL267305   4.878  19.823   5.292  0.1131 -0.0130 -0.3861
    1OPC    C1B67306   4.958  19.855   4.992 -0.1072  0.0181 -0.2710
    1OPC    D2B67307   5.356  20.045   4.775  0.0970  0.0746 -0.1981
    1OPC    C3B67308   5.467  19.821   4.427 -0.1433 -0.2663 -0.1640
    1OPC    C4B67309   5.369  19.879   3.915  0.2308  0.0774 -0.2428
    1OPC    NC367310  19.475  28.189   7.075  0.0453  0.1084 -0.2024
    1OPC    PO467311  19.051  27.982   6.912  0.0773 -0.0548  0.2667
    1OPC    GL167312  19.137  28.067   6.542  0.0522 -0.0024 -0.1771
    1OPC    GL267313  19.265  27.845   6.327 -0.0831 -0.1654  0.1647
    1OPC    C1B67314  19.171  27.656   6.018 -0.2584  0.1821  0.0488
    1OPC    D2B67315  19.101  27.675   5.620  0.0282  0.1095 -0.4865
    1OPC    C3B67316  18.841  28.035   5.559  0.2270 -0.1419  0.1253
    1OPC    C4B67317  18.792  28.464   5.559  0.3530  0.2363 -0.1538
    1OPC    NC367318  27.945  16.525   6.567 -0.1088  0.1183 -0.1074
    1OPC    PO467319  28.080  16.232   6.339  0.2340  0.1127 -0.4101
    1OPC    GL167320  28.345  16.327   6.006  0.1002 -0.1782 -0.1434
    1OPC    GL267321  28.499  16.441   5.828  0.0667 -0.0899 -0.1173
    1OPC    C1B67322  28.414  16.417   5.358 -0.1823 -0.1909 -0.0616
    1OPC    D2B67323  28.591  16.503   4.878  0.1828 -0.0368 -0.0508
    1OPC    C3B67324  28.369  16.614   4.517  0.0035  0.1610  0.0802
    1OPC    C4B67325  27.950  16.457   4.476 -0.3661 -0.2066 -0.3636
    1OPC    NC367326  24.921  26.876   6.597 -0.1665  0.0784 -0.0783
    1OPC    PO467327  24.999  26.521   6.791  0.1145 -0.0058 -0.2385
    1OPC    GL167328  25.243  26.395   6.521 -0.1808  0.1812 -0.1728
    1OPC    GL267329  25.293  26.431   6.136 -0.0873  0.2145 -0.0855
    1OPC    C1B67330  25.245  26.384   5.709 -0.1263 -0.1241 -0.0403
    1OPC    D2B67331  25.583  26.359   5.344 -0.3158  0.2137  0.0660
    1OPC    C3B67332  25.831  25.989   5.121 -0.3418 -0.0182 -0.1230
    1OPC    C4B67333  26.291  25.887   5.122  0.0016 -0.0744  0.0607
    1OPC    NC367334   2.721  10.556   5.974 -0.1602 -0.1762 -0.4411
    1OPC    PO467335   2.436  10.844   6.006  0.1189 -0.1370  0.1780
    1OPC    GL167336   2.308  10.646   5.675  0.0096  0.1133  0.1935
    1OPC    GL267337   2.236  10.509   5.411 -0.0029 -0.2584 -0.4385
    1OPC    C1B67338   2.197  10.363   5.044 -0.3596  0.0907  0.0953
    1OPC    D2B67339   2.370  10.364   4.664 -0.1472  0.2460  0.2740
    1OPC    C3B67340   2.735  10.279   4.614  0.1224  0.1434 -0.3704
    1OPC    C4B67341   2.789  10.050   4.341 -0.0426  0.1764  0.1718
    1OPC    NC367342  18.436   4.532   6.641 -0.3547  0.1766 -0.0707
    1OPC    PO467343  18.703   4.815   6.593 -0.1416 -0.3513 -0.1904
    1OPC    GL167344  18.590   5.007   6.192 -0.0308  0.1139 -0.0452
    1OPC    GL267345  18.480   5.088   6.006 -0.1534  0.0294  0.4497
    1OPC    C1B67346  18.395   5.033   5.498 -0.1401 -0.1051 -0.1736
    1OPC    D2B67347  18.389   5.354   5.132  0.0726  0.0090  0.0896
    1OPC    C3B67348  18.094   5.631   5.156 -0.0589  0.1099 -0.0459
    1OPC    C4B67349  17.706   5.800   4.937 -0.1191 -0.1597 -0.0023
    1OPC    NC367350   2.843  28.465   6.497  0.0421  0.0558 -0.2313
    1OPC    PO467351   3.045  28.844   6.737  0.1002  0.2612 -0.1523
    1OPC    GL167352   2.749  29.018   6.404 -0.1248 -0.0518  0.3746
    1OPC    GL267353   2.553  29.021   6.171  0.0303 -0.0420  0.3324
    1OPC    C1B67354   2.673  28.944   5.737  0.2475  0.1796  0.1501
    1OPC    D2B67355   2.768  28.987   5.338  0.0367 -0.0606  0.3053
    1OPC    C3B67356   2.931  29.364   5.220  0.0691  0.1740 -0.3299
    1OPC    C4B67357   2.763  29.717   5.298 -0.1232 -0.1180 -0.0030
    1OPC    NC367358  25.793   7.170   6.281 -0.0859  0.0026 -0.0578
    1OPC    PO467359  26.244   7.309   6.250  0.2013  0.2364 -0.3657
    1OPC    GL167360  26.392   7.318   5.891 -0.5034 -0.1724 -0.0538
    1OPC    GL267361  26.583   7.261   5.720  0.0036  0.2959  0.0020
    1OPC    C1B67362  26.698   7.438   5.320  0.2364  0.0361  0.0677
    1OPC    D2B67363  26.881   7.416   4.842  0.0554 -0.0093 -0.1805
    1OPC    C3B67364  26.571   7.495   4.520 -0.0770 -0.3442 -0.5010
    1OPC    C4B67365  26.399   7.347   4.192  0.3158  0.0735 -0.2130
    1OPC    NC367366   2.384  21.665   6.467  0.1441  0.1430  0.0491
    1OPC    PO467367   2.488  21.301   6.334  0.1471 -0.2089 -0.1868
    1OPC    GL167368   2.204  21.372   5.965 -0.3633 -0.0252 -0.2224
    1OPC    GL267369   2.133  21.319   5.679 -0.2261  0.0153  0.0710
    1OPC    C1B67370   2.201  21.291   5.283 -0.0227 -0.1348 -0.0524
    1OPC    D2B67371   2.128  21.228   4.825 -0.1165  0.1567  0.0308
    1OPC    C3B67372   1.744  21.357   4.759  0.1045 -0.0772  0.0310
    1OPC    C4B67373   1.320  21.280   4.668  0.1621 -0.0578  0.1918
    1OPC    NC367374  26.655   6.115   6.264  0.3886  0.3727 -0.2830
    1OPC    PO467375  26.425   6.480   6.149 -0.2937 -0.1504 -0.2102
    1OPC    GL167376  26.511   6.758   5.820  0.3707 -0.0104 -0.1511
    1OPC    GL267377  26.444   6.785   5.559  0.0755 -0.1492 -0.0335
    1OPC    C1B67378  26.220   6.666   5.286  0.0414  0.1694 -0.0621
    1OPC    D2B67379  26.285   6.613   4.918  0.0319 -0.0299 -0.0942
    1OPC    C3B67380  26.337   6.929   4.599  0.1821  0.1955  0.1486
    1OPC    C4B67381  26.694   7.028   4.385  0.0355 -0.1357  0.0654
    1OPC    NC367382  25.167   9.024   6.577  0.1624 -0.1785  0.0493
    1OPC    PO467383  24.862   9.080   6.215  0.0276 -0.1238  0.0825
    1OPC    GL167384  25.017   9.311   5.846  0.0694  0.0562 -0.0508
    1OPC    GL267385  24.833   9.407   5.641 -0.3521  0.1003 -0.2040
    1OPC    C1B67386  24.611   9.348   5.364 -0.3345  0.1950  0.2586
    1OPC    D2B67387  24.428   9.281   5.021 -0.1036  0.1636 -0.2575
    1OPC    C3B67388  24.826   9.383   4.706  0.1309  0.1673  0.0424
    1OPC    C4B67389  25.044   9.642   4.376  0.0750  0.1288 -0.1096
    1OPC    NC367390  19.881   0.128   6.572  0.0111  0.0459 -0.0250
    1OPC    PO467391  20.048  -0.275   6.518  0.0640 -0.0463  0.2870
    1OPC    GL167392  19.829  -0.122   6.076 -0.2195 -0.2985  0.0669
    1OPC    GL267393  19.911  -0.015   5.790  0.1889  0.2347 -0.0008
    1OPC    C1B67394  19.861  -0.067   5.351 -0.0135 -0.2791 -0.2284
    1OPC    D2B67395  20.087  -0.014   4.900  0.4331  0.1013 -0.0070
    1OPC    C3B67396  20.297   0.357   4.842  0.1446 -0.0490 -0.1812
    1OPC    C4B67397  20.565   0.713   4.980 -0.0610  0.1323 -0.2671
    1OPC    NC367398  21.130  20.944   7.116  0.0769 -0.0449 -0.0183
    1OPC    PO467399  20.864  21.003   6.764 -0.0248  0.1884 -0.0797
    1OPC    GL167400  20.526  20.929   6.569 -0.2313  0.1292 -0.0838
    1OPC    GL267401  20.608  20.961   6.237 -0.1020 -0.0894  0.0280
    1OPC    C1B67402  20.695  21.322   5.994 -0.0498 -0.2041 -0.0735
    1OPC    D2B67403  20.437  21.517   5.705 -0.1411  0.0330  0.0588
    1OPC    C3B67404  20.585  21.486   5.320 -0.1338  0.0124 -0.6343
    1OPC    C4B67405  20.739  21.282   5.016  0.1765 -0.3503  0.1701
    1OPC    NC367406  11.119   3.714   7.350  0.2230  0.0049  0.1146
    1OPC    PO467407  10.991   3.500   7.706 -0.2621 -0.1184 -0.0274
    1OPC    GL167408  10.952   3.025   7.582 -0.0867  0.1724  0.2397
    1OPC    GL267409  11.116   2.893   7.436  0.4766 -0.1083  0.0782
    1OPC    C1B67410  11.343   2.937   7.048  0.1162 -0.2638  0.0918
    1OPC    D2B67411  11.400   2.762   6.583  0.1277 -0.1186  0.3652
    1OPC    C3B67412  11.237   2.892   6.204  0.1696 -0.0015  0.1504
    1OPC    C4B67413  11.202   2.919   5.718  0.1204 -0.0549  0.1156
    1OPC    NC367414   1.029   8.437   6.171  0.0028 -0.3327  0.2147
    1OPC    PO467415   0.718   8.697   5.964  0.1070  0.0231 -0.0348
    1OPC    GL167416   0.764   8.987   5.642  0.0185 -0.0221 -0.0845
    1OPC    GL267417   0.693   9.189   5.483 -0.2912  0.0038  0.0552
    1OPC    C1B67418   0.958   9.184   5.129 -0.0380  0.0621 -0.1085
    1OPC    D2B67419   1.056   9.104   4.691  0.2014  0.1657 -0.0218
    1OPC    C3B67420   1.195   8.816   4.389 -0.0530  0.1520 -0.1219
    1OPC    C4B67421   1.022   8.490   4.014  0.0281  0.2454 -0.1660
    1OPC    NC367422  24.453  17.853   6.810  0.2650  0.0957  0.0385
    1OPC    PO467423  24.484  17.545   6.463  0.3774  0.2195 -0.0496
    1OPC    GL167424  24.313  17.791   6.330 -0.0484 -0.1267  0.0051
    1OPC    GL267425  24.037  17.868   6.221 -0.0373 -0.0774 -0.0872
    1OPC    C1B67426  23.691  18.011   5.984 -0.1835  0.0857  0.0162
    1OPC    D2B67427  23.629  17.996   5.497 -0.0209  0.5785  0.0812
    1OPC    C3B67428  23.712  17.679   5.157 -0.1198  0.0060  0.1698
    1OPC    C4B67429  23.508  17.763   4.739 -0.2840  0.1332 -0.1092
    1OPC    NC367430  26.729   3.788   6.082  0.1130  0.1744 -0.2093
    1OPC    PO467431  27.182   3.832   6.242  0.2540  0.1075  0.0401
    1OPC    GL167432  27.452   3.762   5.968 -0.2726  0.1681  0.1854
    1OPC    GL267433  27.616   3.502   5.686 -0.1597  0.0693 -0.3857
    1OPC    C1B67434  27.862   3.392   5.267 -0.0875  0.1145  0.2312
    1OPC    D2B67435  28.089   3.229   4.896 -0.2831  0.1401  0.3251
    1OPC    C3B67436  28.175   2.746   4.756  0.0300 -0.3091  0.1442
    1OPC    C4B67437  28.084   2.533   4.429  0.1122 -0.3702 -0.0116
    1OPC    NC367438  26.078  25.377   6.888 -0.3117  0.0539  0.1637
    1OPC    PO467439  26.110  25.179   6.510  0.0142  0.0938 -0.1722
    1OPC    GL167440  25.741  25.032   6.187 -0.0165  0.0700 -0.2960
    1OPC    GL267441  25.415  25.060   6.063 -0.1554  0.0107  0.1117
    1OPC    C1B67442  25.160  24.931   5.726 -0.3348 -0.0949  0.1218
    1OPC    D2B67443  24.978  24.822   5.342  0.4073  0.1255 -0.4434
    1OPC    C3B67444  24.832  25.074   4.967  0.1545 -0.2774  0.0490
    1OPC    C4B67445  24.437  25.006   4.818  0.1102 -0.1831 -0.1762
    1OPC    NC367446  20.775  29.260   6.412 -0.1611 -0.0793  0.0465
    1OPC    PO467447  20.715  29.732   6.336  0.1346 -0.0306 -0.1412
    1OPC    GL167448  20.781  29.780   5.903  0.2653 -0.4121 -0.0097
    1OPC    GL267449  20.925  29.568   5.652  0.0951  0.0417  0.0671
    1OPC    C1B67450  21.278  29.569   5.234 -0.1209 -0.0786  0.2214
    1OPC    D2B67451  21.631  29.641   4.896  0.2968 -0.0375  0.2061
    1OPC    C3B67452  21.961  29.398   4.950 -0.2761  0.1699 -0.1181
    1OPC    C4B67453  22.410  29.423   5.019  0.1458  0.0251 -0.0665
    1OPC    NC367454  27.560  15.574   5.667 -0.3076 -0.1049 -0.3687
    1OPC    PO467455  28.001  15.481   5.681  0.1122  0.1742  0.0002
    1OPC    GL167456  27.822  15.398   5.305 -0.0421  0.0510  0.0573
    1OPC    GL267457  27.738  15.500   5.073 -0.1788  0.0687 -0.0803
    1OPC    C1B67458  27.831  15.596   4.628 -0.3081 -0.2117  0.0369
    1OPC    D2B67459  28.005  15.398   4.222 -0.0913 -0.0959  0.1890
    1OPC    C3B67460  28.297  15.049   4.061  0.0814  0.1493 -0.0344
    1OPC    C4B67461  28.748  14.974   4.066  0.1230  0.0560  0.0968
    1OPC    NC367462  26.923  14.749   6.357 -0.1848 -0.0935 -0.0370
    1OPC    PO467463  26.669  14.601   6.037  0.1079  0.0615  0.1837
    1OPC    GL167464  26.965  14.531   5.649  0.1579 -0.2177  0.0101
    1OPC    GL267465  26.906  14.476   5.242  0.2152  0.0761 -0.5251
    1OPC    C1B67466  26.742  14.694   4.890  0.2259 -0.0300  0.1307
    1OPC    D2B67467  26.503  14.601   4.418 -0.0483 -0.2280 -0.0579
    1OPC    C3B67468  26.340  14.338   4.087  0.1814 -0.1875 -0.3350
    1OPC    C4B67469  25.966  14.199   3.883  0.1468  0.2121 -0.2602
    1OPC    NC367470  26.175  18.497   7.222 -0.3945  0.1331  0.2173
    1OPC    PO467471  26.342  18.293   6.782  0.2455  0.0959  0.2664
    1OPC    GL167472  26.027  18.567   6.672 -0.0438  0.2076  0.0394
    1OPC    GL267473  25.904  18.645   6.308  0.1258 -0.0678  0.0798
    1OPC    C1B67474  25.785  18.700   5.851  0.0270  0.3058  0.3765
    1OPC    D2B67475  25.588  18.652   5.424  0.2223 -0.0731 -0.3590
    1OPC    C3B67476  25.512  18.310   5.168 -0.0459  0.4415 -0.1365
    1OPC    C4B67477  25.428  17.883   4.981  0.1433 -0.0213  0.0139
    1OPC    NC367478   2.171  12.067   6.413  0.0554 -0.2979 -0.0938
    1OPC    PO467479   2.267  11.629   6.493  0.2454 -0.0875 -0.2340
    1OPC    GL167480   2.354  11.782   6.018  0.2588  0.1224 -0.3831
    1OPC    GL267481   2.526  11.821   5.730  0.0043  0.3584  0.1875
    1OPC    C1B67482   2.762  11.848   5.346  0.0015 -0.1078  0.0078
    1OPC    D2B67483   2.768  11.612   4.968 -0.0859 -0.3212  0.1191
    1OPC    C3B67484   3.024  11.514   4.602 -0.4775 -0.2315 -0.0699
    1OPC    C4B67485   3.035  11.260   4.243  0.0116 -0.0516 -0.3589
    1OPC    NC367486  23.441   9.327   6.679 -0.1554  0.1312 -0.1034
    1OPC    PO467487  23.387   9.606   6.392 -0.0247 -0.0645  0.0074
    1OPC    GL167488  23.559   9.865   6.055 -0.1045  0.2264 -0.1305
    1OPC    GL267489  23.538   9.849   5.765 -0.0358 -0.0626 -0.1302
    1OPC    C1B67490  23.770   9.673   5.495  0.1164  0.1100 -0.2836
    1OPC    D2B67491  24.145   9.681   5.235 -0.0835  0.0452 -0.0799
    1OPC    C3B67492  24.253   9.679   4.742  0.3485 -0.0134 -0.0297
    1OPC    C4B67493  24.154   9.755   4.361  0.2241  0.1020 -0.0337
    1OPC    NC367494  26.745  29.293   6.550  0.1790  0.1122  0.2309
    1OPC    PO467495  26.653  28.826   6.450 -0.1819  0.1078 -0.3656
    1OPC    GL167496  26.454  28.553   6.146  0.0414  0.2564 -0.0590
    1OPC    GL267497  26.199  28.372   6.051  0.0776 -0.2682  0.0903
    1OPC    C1B67498  26.253  28.169   5.655  0.2148  0.0656 -0.0588
    1OPC    D2B67499  26.075  28.239   5.277  0.1242  0.0672 -0.0144
    1OPC    C3B67500  26.144  28.096   4.879 -0.0087  0.3063  0.2395
    1OPC    C4B67501  26.308  27.796   4.510  0.0427  0.1158  0.0296
    1OPC    NC367502   4.168   5.503   7.132 -0.1351 -0.1015  0.0299
    1OPC    PO467503   4.173   5.587   6.590  0.0713  0.1653  0.0602
    1OPC    GL167504   4.165   5.332   6.293 -0.2683  0.0978  0.0882
    1OPC    GL267505   4.264   5.191   6.088  0.0017 -0.2034 -0.2350
    1OPC    C1B67506   4.510   5.033   5.720 -0.2783  0.0046 -0.0039
    1OPC    D2B67507   4.837   4.741   5.505 -0.0689  0.0730 -0.1165
    1OPC    C3B67508   5.162   4.914   5.194 -0.1956 -0.0982  0.3922
    1OPC    C4B67509   5.184   5.256   4.865 -0.0176  0.3284  0.3079
    1OPC    NC367510   0.202  17.206   6.635  0.0144 -0.1642  0.0833
    1OPC    PO467511  -0.133  16.964   6.534  0.0583 -0.2053 -0.1972
    1OPC    GL167512  -0.001  16.781   6.242 -0.1012  0.1658 -0.2032
    1OPC    GL267513   0.124  16.876   5.901  0.1205 -0.1984 -0.0697
    1OPC    C1B67514   0.162  16.847   5.381 -0.0627 -0.0882  0.0449
    1OPC    D2B67515   0.246  16.979   4.910  0.3271 -0.3150 -0.1090
    1OPC    C3B67516   0.538  16.744   4.505  0.0982 -0.1387  0.1118
    1OPC    C4B67517   0.426  16.473   4.174  0.0645  0.2146 -0.1415
    1OPC    NC367518   8.539  10.422   7.207 -0.1942  0.0142  0.2306
    1OPC    PO467519   8.168  10.595   7.169 -0.0344 -0.2992 -0.1810
    1OPC    GL167520   8.171  10.324   6.785 -0.2771 -0.1743 -0.0079
    1OPC    GL267521   8.208  10.233   6.594  0.1240 -0.3712 -0.0607
    1OPC    C1B67522   8.170  10.122   6.181  0.0282  0.1209  0.0579
    1OPC    D2B67523   8.305  10.110   5.723  0.2295 -0.0130 -0.1520
    1OPC    C3B67524   8.683  10.244   5.484 -0.1649  0.1895 -0.0362
    1OPC    C4B67525   8.949  10.472   5.817  0.2178  0.0987  0.0634
    1OPC    NC367526  28.684  17.790   6.550  0.1413 -0.0004 -0.2434
    1OPC    PO467527  28.341  17.637   6.332 -0.1193 -0.1411  0.2721
    1OPC    GL167528  28.269  17.710   5.924  0.1860  0.0123  0.0983
    1OPC    GL267529  28.443  17.593   5.722  0.2617  0.1945  0.3441
    1OPC    C1B67530  28.547  17.251   5.560  0.0600  0.0474  0.0738
    1OPC    D2B67531  28.552  16.872   5.345 -0.2014  0.0501  0.1650
    1OPC    C3B67532  28.959  16.670   5.345  0.0209  0.0171 -0.1205
    1OPC    C4B67533  29.124  16.483   5.678  0.0195 -0.3989  0.1748
    1OPC    NC367534  19.597  24.575   7.232 -0.0196  0.1148 -0.0238
    1OPC    PO467535  19.522  24.677   6.817 -0.0326 -0.3307  0.0441
    1OPC    GL167536  19.820  24.601   6.475 -0.1626  0.0073  0.0955
    1OPC    GL267537  19.992  24.585   6.138  0.0522  0.2253  0.1344
    1OPC    C1B67538  20.053  24.754   5.726 -0.2132 -0.0740  0.2101
    1OPC    D2B67539  19.638  24.868   5.479  0.2126 -0.4687  0.2941
    1OPC    C3B67540  19.325  25.207   5.502 -0.2907 -0.2284  0.1802
    1OPC    C4B67541  19.159  25.606   5.578  0.3711 -0.2538 -0.2072
    1OPC    NC367542  20.356  21.228   6.926  0.1013 -0.1444 -0.0739
    1OPC    PO467543  19.825  21.391   6.841  0.0414  0.3522 -0.1314
    1OPC    GL167544  20.005  21.413   6.474  0.4286 -0.0159  0.0433
    1OPC    GL267545  20.074  21.547   6.103 -0.2641  0.0294 -0.1595
    1OPC    C1B67546  19.918  21.486   5.730 -0.0042  0.2753  0.0003
    1OPC    D2B67547  19.999  21.048   5.427  0.0546  0.1203  0.2512
    1OPC    C3B67548  20.296  21.096   5.127  0.2447 -0.0885 -0.0662
    1OPC    C4B67549  20.362  21.067   4.745  0.1151 -0.0193 -0.1513
    1OPC    NC367550  22.067  26.185   6.689 -0.4069  0.0064 -0.1454
    1OPC    PO467551  22.144  26.588   6.671  0.2237 -0.0607  0.0009
    1OPC    GL167552  21.978  26.837   6.386  0.0263  0.3429 -0.0045
    1OPC    GL267553  22.063  26.879   6.104  0.0345  0.0290 -0.1271
    1OPC    C1B67554  22.254  27.174   5.820  0.0812  0.3481  0.1317
    1OPC    D2B67555  22.148  27.328   5.422 -0.0305 -0.0302  0.2309
    1OPC    C3B67556  22.038  26.971   5.147  0.4483 -0.1028 -0.0380
    1OPC    C4B67557  21.878  26.532   4.996 -0.0090  0.0666 -0.1546
    1OPC    NC367558   7.349  14.636   6.523  0.2936  0.2295 -0.1519
    1OPC    PO467559   6.937  14.463   6.713  0.0249 -0.1727  0.4514
    1OPC    GL167560   6.703  14.706   6.394 -0.1197  0.2564  0.1077
    1OPC    GL267561   6.651  14.605   6.043 -0.2719 -0.2190 -0.1463
    1OPC    C1B67562   6.608  14.593   5.606 -0.0870  0.0366  0.2640
    1OPC    D2B67563   6.736  14.475   5.162  0.0015  0.0282  0.1173
    1OPC    C3B67564   6.556  14.239   4.846 -0.2525 -0.0932  0.3030
    1OPC    C4B67565   6.310  13.981   4.589 -0.3091  0.3032  0.2611
    1OPC    NC367566   1.930   7.612   6.691  0.3447 -0.2060 -0.0129
    1OPC    PO467567   2.228   7.840   6.738  0.2207  0.3686  0.2387
    1OPC    GL167568   2.348   7.756   6.259 -0.0265  0.0002  0.1147
    1OPC    GL267569   2.554   7.792   6.062  0.1440 -0.1770  0.0344
    1OPC    C1B67570   2.875   7.895   5.775 -0.1628  0.0600 -0.1354
    1OPC    D2B67571   3.110   7.796   5.437 -0.0586  0.2694 -0.0485
    1OPC    C3B67572   3.035   7.896   5.013 -0.0824  0.2264 -0.2139
    1OPC    C4B67573   2.907   8.155   4.684 -0.1788 -0.2454 -0.0204
    1OPC    NC367574   7.545  13.200   6.551 -0.0166  0.1311 -0.0209
    1OPC    PO467575   7.612  12.922   6.830  0.4081  0.0637 -0.1468
    1OPC    GL167576   7.710  12.698   6.589 -0.1291 -0.1651 -0.2558
    1OPC    GL267577   7.722  12.701   6.305  0.0710  0.2054 -0.3495
    1OPC    C1B67578   7.825  12.579   5.890  0.1197 -0.1624  0.3039
    1OPC    D2B67579   7.959  12.367   5.524  0.0684 -0.0026  0.1509
    1OPC    C3B67580   7.815  12.413   5.144  0.0446  0.4245  0.2582
    1OPC    C4B67581   7.788  12.384   4.613  0.3616  0.1886  0.1215
    1OPC    NC367582  26.584   1.099   6.837  0.1878 -0.2412  0.3094
    1OPC    PO467583  26.918   1.255   6.700  0.1302 -0.0374  0.3809
    1OPC    GL167584  26.642   1.361   6.347 -0.2969 -0.2471 -0.0420
    1OPC    GL267585  26.608   1.385   6.013 -0.1974 -0.1153  0.4110
    1OPC    C1B67586  26.474   1.522   5.594 -0.0395  0.0739  0.0320
    1OPC    D2B67587  26.487   1.569   5.203  0.1767  0.0801 -0.0115
    1OPC    C3B67588  26.320   1.415   4.788  0.1595  0.2691 -0.0290
    1OPC    C4B67589  25.952   1.415   4.537  0.2087 -0.2072 -0.0055
    1OPC    NC367590  17.349   1.172   7.737  0.0345  0.0867  0.1529
    1OPC    PO467591  17.062   1.369   7.441  0.1267  0.1601  0.1634
    1OPC    GL167592  16.961   1.059   7.133  0.2028  0.0036  0.0344
    1OPC    GL267593  16.676   0.945   6.958  0.0148 -0.1554 -0.0516
    1OPC    C1B67594  16.328   0.841   6.607  0.5796 -0.1270 -0.0669
    1OPC    D2B67595  16.001   0.725   6.323  0.0649  0.2366  0.1086
    1OPC    C3B67596  15.901   0.970   6.012  0.1510 -0.0988  0.1360
    1OPC    C4B67597  15.676   1.173   5.608  0.0141 -0.0300 -0.0319
    1OPC    NC367598  28.350  22.443   7.373  0.2597 -0.0984 -0.0346
    1OPC    PO467599  28.162  22.322   6.957  0.1236  0.1091 -0.1333
    1OPC    GL167600  27.956  22.218   6.605 -0.4020 -0.0696  0.2480
    1OPC    GL267601  27.798  22.290   6.311  0.1466  0.0339  0.4344
    1OPC    C1B67602  27.584  22.244   5.919 -0.0398  0.0565 -0.2118
    1OPC    D2B67603  27.253  22.409   5.705  0.2492 -0.0739 -0.0215
    1OPC    C3B67604  27.015  22.332   5.258  0.0548  0.0738 -0.1354
    1OPC    C4B67605  27.101  22.283   4.911 -0.1460  0.2930 -0.3111
    1OPC    NC367606  27.440   7.343   6.359  0.2760  0.0940 -0.0513
    1OPC    PO467607  27.042   7.159   6.075 -0.1007 -0.1577 -0.1132
    1OPC    GL167608  27.043   6.927   5.742  0.1787 -0.0986 -0.1975
    1OPC    GL267609  27.083   6.678   5.551 -0.1326 -0.0255 -0.1779
    1OPC    C1B67610  27.258   6.397   5.124  0.3393  0.1768 -0.2228
    1OPC    D2B67611  27.351   5.998   5.109  0.0741 -0.0161  0.0434
    1OPC    C3B67612  27.270   5.811   4.769  0.0012 -0.0158 -0.0150
    1OPC    C4B67613  27.453   5.390   4.754 -0.3873 -0.3280  0.1273
    1OPC    NC367614  19.727  23.399   6.777 -0.1764  0.1772 -0.1065
    1OPC    PO467615  19.229  23.489   6.751 -0.1195 -0.0796  0.1596
    1OPC    GL167616  19.490  23.656   6.380 -0.3793 -0.2944  0.0869
    1OPC    GL267617  19.647  23.763   6.090 -0.0999 -0.3594  0.0549
    1OPC    C1B67618  19.909  23.838   5.588  0.2055  0.2552  0.0436
    1OPC    D2B67619  19.890  23.666   5.216 -0.1437 -0.2395 -0.3097
    1OPC    C3B67620  20.136  23.907   4.907  0.0368  0.0118  0.3188
    1OPC    C4B67621  20.236  24.293   4.929 -0.0283 -0.2121  0.1581
    1OPC    NC367622  23.776  22.277   7.360 -0.1294 -0.0514 -0.1192
    1OPC    PO467623  23.838  22.662   7.092 -0.0117  0.1185  0.1234
    1OPC    GL167624  23.632  22.819   6.692  0.0852 -0.2800  0.0755
    1OPC    GL267625  23.717  22.963   6.317 -0.0465  0.0414  0.1215
    1OPC    C1B67626  23.558  23.018   6.069 -0.0888  0.0831 -0.0598
    1OPC    D2B67627  23.286  23.137   5.747 -0.1717 -0.2532  0.1836
    1OPC    C3B67628  23.268  23.588   5.601  0.2056 -0.0767 -0.0224
    1OPC    C4B67629  23.345  23.831   5.224  0.0072 -0.1345  0.3374
    1OPC    NC367630  23.912   9.613   6.468 -0.2217  0.2704  0.2105
    1OPC    PO467631  23.949   9.265   6.316  0.0564 -0.1201 -0.2354
    1OPC    GL167632  23.569   9.266   6.079 -0.0121 -0.1080 -0.0419
    1OPC    GL267633  23.287   9.440   5.886  0.3269  0.0913 -0.0163
    1OPC    C1B67634  23.305   9.437   5.377 -0.2260 -0.1527 -0.2473
    1OPC    D2B67635  23.162   9.636   5.063 -0.2127 -0.0058 -0.0691
    1OPC    C3B67636  23.211   9.514   4.643  0.0557 -0.1174  0.1572
    1OPC    C4B67637  23.081   9.548   4.208 -0.3160 -0.1342 -0.1768
    1OPC    NC367638  12.409  21.063   6.552  0.1997  0.2518 -0.1029
    1OPC    PO467639  12.289  21.516   6.494 -0.1885  0.2466 -0.0895
    1OPC    GL167640  12.067  21.925   6.294 -0.0857  0.2710  0.2474
    1OPC    GL267641  12.175  22.049   5.960  0.3231  0.0294 -0.1493
    1OPC    C1B67642  12.495  22.001   5.706  0.0411  0.1663 -0.3052
    1OPC    D2B67643  12.971  21.994   5.504 -0.1599 -0.3388  0.2242
    1OPC    C3B67644  13.051  22.161   5.217 -0.0377 -0.3802  0.2038
    1OPC    C4B67645  12.839  22.302   4.851  0.1306  0.3921 -0.0953
    1OPC    NC367646  27.338  18.050   6.757  0.2023  0.3289 -0.0983
    1OPC    PO467647  27.446  17.888   6.328  0.0268  0.0262 -0.0327
    1OPC    GL167648  27.736  17.725   5.977 -0.1389  0.0047  0.2283
    1OPC    GL267649  27.645  17.864   5.626 -0.0107 -0.1043 -0.1234
    1OPC    C1B67650  27.529  18.087   5.254 -0.1152  0.2106  0.3073
    1OPC    D2B67651  27.744  18.209   4.818  0.0676  0.3955 -0.0467
    1OPC    C3B67652  28.121  18.240   4.782 -0.1087  0.4396 -0.2038
    1OPC    C4B67653  28.585  18.390   4.659  0.0764  0.1781 -0.0979
    1OPC    NC367654   7.976   2.548   7.095 -0.0571  0.0991  0.1591
    1OPC    PO467655   7.642   2.717   7.256 -0.2407 -0.3340 -0.1410
    1OPC    GL167656   7.586   2.707   6.783 -0.1499  0.0190  0.0722
    1OPC    GL267657   7.600   2.467   6.565 -0.0601 -0.0438 -0.1373
    1OPC    C1B67658   7.702   2.306   6.164 -0.3334 -0.1426 -0.2582
    1OPC    D2B67659   7.676   2.334   5.605  0.1227  0.0922  0.1082
    1OPC    C3B67660   7.459   2.019   5.473 -0.3231  0.1952  0.1649
    1OPC    C4B67661   7.016   2.135   5.539 -0.0052 -0.0604  0.0265
    1OPC    NC367662   0.548  20.026   5.788  0.5204  0.0233 -0.2383
    1OPC    PO467663   0.180  20.369   5.839 -0.0227  0.1961  0.1039
    1OPC    GL167664   0.382  20.457   5.565  0.0433 -0.0297  0.3888
    1OPC    GL267665   0.362  20.466   5.389  0.0913 -0.0495  0.2633
    1OPC    C1B67666   0.152  20.752   5.078  0.3293 -0.1451 -0.3533
    1OPC    D2B67667  -0.279  20.879   4.979  0.2080  0.0622  0.2101
    1OPC    C3B67668  -0.438  20.831   4.534 -0.0232 -0.0790 -0.0856
    1OPC    C4B67669  -0.491  20.772   4.108 -0.2879  0.0397 -0.0125
    1OPC    NC367670  17.037   0.870   8.098  0.2806 -0.1358  0.4231
    1OPC    PO467671  16.932   0.802   7.619  0.4727 -0.1165 -0.2097
    1OPC    GL167672  16.899   0.587   7.280 -0.0375  0.0771 -0.0102
    1OPC    GL267673  17.065   0.362   7.032  0.0893 -0.0851  0.1768
    1OPC    C1B67674  17.090   0.063   6.708 -0.0711  0.1612 -0.3161
    1OPC    D2B67675  17.074   0.118   6.205  0.0982  0.0503 -0.2291
    1OPC    C3B67676  16.657   0.310   6.020  0.1193 -0.1544 -0.0077
    1OPC    C4B67677  16.339   0.384   6.288  0.1965 -0.0760  0.1755
    1OPC    NC367678  23.516  24.948   7.168 -0.2221 -0.0727 -0.0149
    1OPC    PO467679  23.963  25.101   7.164  0.0119  0.2566 -0.1563
    1OPC    GL167680  23.987  25.398   6.898 -0.1933 -0.1634  0.0633
    1OPC    GL267681  23.980  25.460   6.671  0.1494  0.1290  0.0245
    1OPC    C1B67682  24.282  25.743   6.350  0.1394 -0.0690  0.1328
    1OPC    D2B67683  24.246  26.168   6.255  0.3325 -0.1461 -0.0565
    1OPC    C3B67684  23.802  26.305   6.208  0.1692  0.0114  0.0278
    1OPC    C4B67685  23.438  26.504   6.186 -0.0084  0.0973  0.1863
    1OPC    NC367686  12.238   9.898   8.024 -0.0910  0.3381 -0.2436
    1OPC    PO467687  12.644   9.845   7.846  0.1791 -0.1072  0.1832
    1OPC    GL167688  12.686   9.479   7.481 -0.0762 -0.2960 -0.2399
    1OPC    GL267689  12.820   9.504   7.164  0.5016  0.1691  0.4327
    1OPC    C1B67690  12.968   9.836   6.884 -0.3940  0.0878 -0.4350
    1OPC    D2B67691  13.060  10.250   6.772 -0.1028 -0.1010 -0.1582
    1OPC    C3B67692  13.182  10.255   6.405 -0.0086  0.1380 -0.1301
    1OPC    C4B67693  13.182  10.091   5.953 -0.0301  0.2800  0.1577
    1OPC    NC367694  21.974   5.376   7.129 -0.2915 -0.1073 -0.2642
    1OPC    PO467695  21.935   5.398   6.719 -0.3938  0.0064 -0.1552
    1OPC    GL167696  21.891   5.503   6.352 -0.0849 -0.2548 -0.0506
    1OPC    GL267697  21.762   5.508   5.942  0.0264  0.0025 -0.0531
    1OPC    C1B67698  21.321   5.690   5.710 -0.0384 -0.1403  0.1458
    1OPC    D2B67699  21.271   5.806   5.231 -0.0471 -0.0493 -0.1000
    1OPC    C3B67700  20.938   5.954   5.040  0.0890  0.0156  0.1418
    1OPC    C4B67701  20.676   5.654   4.775 -0.2817  0.1852 -0.2567
    1OPC    NC367702  25.550  21.484   7.200 -0.0779  0.0290 -0.0229
    1OPC    PO467703  25.238  21.218   7.124 -0.1868  0.2151  0.3025
    1OPC    GL167704  25.244  21.328   6.655  0.0422  0.0857 -0.0776
    1OPC    GL267705  25.143  21.352   6.327 -0.0679  0.2303 -0.1397
    1OPC    C1B67706  25.116  21.321   5.878 -0.1784  0.2251 -0.1573
    1OPC    D2B67707  25.037  21.477   5.608  0.1184 -0.2830 -0.2152
    1OPC    C3B67708  25.034  21.941   5.565  0.0785  0.0219  0.0507
    1OPC    C4B67709  25.105  22.449   5.522 -0.3823 -0.4847  0.0760
    1OPC    NC367710  19.102  23.832   7.172  0.1665  0.1901 -0.1673
    1OPC    PO467711  19.246  24.221   7.069  0.0489 -0.0273  0.0793
    1OPC    GL167712  19.061  24.044   6.680 -0.0604  0.3187  0.2219
    1OPC    GL267713  19.146  24.027   6.290  0.2134  0.0902  0.1415
    1OPC    C1B67714  19.229  24.137   5.838  0.1010  0.3157  0.1330
    1OPC    D2B67715  19.428  23.984   5.511  0.1328  0.1350  0.1365
    1OPC    C3B67716  19.522  23.942   5.118  0.2973  0.2960 -0.1742
    1OPC    C4B67717  19.621  24.148   4.789 -0.1891 -0.0540 -0.3326
    1OPC    NC367718   7.563  23.162   6.202  0.2838  0.0267  0.0471
    1OPC    PO467719   7.998  23.406   6.109 -0.0931 -0.3872  0.0068
    1OPC    GL167720   7.772  23.660   5.801  0.1089 -0.2180  0.0301
    1OPC    GL267721   7.765  23.790   5.504 -0.0369 -0.3342 -0.2013
    1OPC    C1B67722   8.021  23.735   5.058  0.0587  0.0801 -0.0117
    1OPC    D2B67723   8.419  23.782   4.688  0.1735  0.1105 -0.1990
    1OPC    C3B67724   8.585  24.119   4.347 -0.1766  0.1671  0.0064
    1OPC    C4B67725   8.763  24.436   4.082 -0.2319  0.0250  0.0922
    1OPC    NC367726  22.767  25.535   6.891 -0.0639  0.1778 -0.2744
    1OPC    PO467727  22.641  25.189   7.025 -0.1593  0.3753 -0.1607
    1OPC    GL167728  22.265  25.373   6.778 -0.3775  0.0124  0.0136
    1OPC    GL267729  22.147  25.378   6.526 -0.0231 -0.1050  0.1011
    1OPC    C1B67730  21.930  25.333   6.160  0.4304 -0.0456 -0.1357
    1OPC    D2B67731  21.790  25.549   5.887 -0.2280  0.0037  0.1188
    1OPC    C3B67732  21.599  25.688   5.483  0.0370 -0.2689  0.3482
    1OPC    C4B67733  21.275  25.529   5.200 -0.0022  0.0048  0.1547
    1OPC    NC367734  27.082  20.941   6.530  0.0948  0.2471  0.0102
    1OPC    PO467735  26.932  20.513   6.488  0.1557 -0.0171 -0.1271
    1OPC    GL167736  26.989  20.542   6.053  0.2874  0.1859 -0.1937
    1OPC    GL267737  27.134  20.689   5.926 -0.0256  0.1011 -0.2434
    1OPC    C1B67738  27.163  21.001   5.572  0.3936 -0.3511 -0.0383
    1OPC    D2B67739  27.641  21.025   5.343 -0.5009  0.3830  0.1637
    1OPC    C3B67740  27.672  20.848   4.858  0.1032  0.0023  0.2059
    1OPC    C4B67741  27.915  21.072   4.505  0.1906 -0.1188  0.2136
    1OPC    NC367742   4.537  11.526   6.681 -0.0558 -0.3105  0.0199
    1OPC    PO467743   4.680  11.677   6.381 -0.1387 -0.1234 -0.1336
    1OPC    GL167744   4.670  11.780   5.982  0.0680  0.0808  0.0679
    1OPC    GL267745   4.798  11.784   5.722  0.2107 -0.0855  0.2443
    1OPC    C1B67746   5.289  11.812   5.694  0.1765  0.5059  0.2243
    1OPC    D2B67747   5.626  11.549   5.966  0.1443 -0.0002  0.2453
    1OPC    C3B67748   5.879  11.142   5.833  0.0695  0.0009  0.0315
    1OPC    C4B67749   6.265  11.054   5.766  0.2040  0.3566 -0.2531
    1OPC    NC367750  15.083   4.074   7.663  0.0811 -0.2197  0.0539
    1OPC    PO467751  15.215   3.619   7.612 -0.1106  0.0946  0.0171
    1OPC    GL167752  14.869   3.540   7.508  0.1742  0.0902 -0.0470
    1OPC    GL267753  14.787   3.595   7.155 -0.0005  0.0105 -0.0442
    1OPC    C1B67754  14.656   3.911   6.727  0.0095 -0.1480  0.1812
    1OPC    D2B67755  14.548   4.383   6.736  0.0290  0.4512 -0.2296
    1OPC    C3B67756  14.648   4.702   6.437 -0.2696  0.1146  0.2348
    1OPC    C4B67757  14.668   4.751   5.963 -0.1312  0.1155 -0.0805
    1OPC    NC367758   1.887  18.611   6.801  0.1118 -0.1885  0.1336
    1OPC    PO467759   1.992  18.739   6.319  0.1256  0.0486  0.0893
    1OPC    GL167760   2.166  18.647   5.987 -0.0954  0.0860  0.0399
    1OPC    GL267761   2.052  18.543   5.653  0.0539 -0.0719  0.1309
    1OPC    C1B67762   2.167  18.374   5.271  0.4239 -0.0279  0.0904
    1OPC    D2B67763   2.334  18.490   4.793  0.1092  0.0953 -0.2872
    1OPC    C3B67764   2.020  18.372   4.373  0.0054 -0.3774 -0.0221
    1OPC    C4B67765   1.679  18.323   4.076  0.0215  0.2004  0.1527
    1OPC    NC367766  23.217   0.131   6.768 -0.2297 -0.2004  0.2731
    1OPC    PO467767  23.034  -0.123   6.531  0.1285  0.4165  0.0914
    1OPC    GL167768  22.874   0.035   6.084  0.1085  0.0399  0.0938
    1OPC    GL267769  22.793   0.084   5.739 -0.0345  0.0283 -0.1075
    1OPC    C1B67770  22.923   0.222   5.431  0.0096  0.0342 -0.0965
    1OPC    D2B67771  23.153   0.215   4.917 -0.2294  0.3413  0.1330
    1OPC    C3B67772  23.466  -0.086   5.043  0.1972  0.1596  0.1109
    1OPC    C4B67773  23.414  -0.452   5.332 -0.3994  0.0292 -0.4064
    1OPC    NC367774   5.492  18.985   5.619  0.1653  0.1216  0.0108
    1OPC    PO467775   5.215  19.263   5.428  0.0523  0.0355  0.1661
    1OPC    GL167776   4.840  19.315   5.183  0.2369  0.0513 -0.3964
    1OPC    GL267777   4.627  19.318   5.141  0.0152  0.0323 -0.4827
    1OPC    C1B67778   4.495  19.523   4.824 -0.2226  0.2261 -0.0120
    1OPC    D2B67779   4.490  19.675   4.376 -0.0769 -0.2091  0.1259
    1OPC    C3B67780   4.322  19.288   4.097  0.3704  0.4837  0.1582
    1OPC    C4B67781   3.993  18.996   4.164 -0.0083  0.2738 -0.1723
    1OPC    NC367782  27.813  28.055   6.590 -0.2676 -0.0094  0.1861
    1OPC    PO467783  27.960  28.410   6.822 -0.2261  0.0456  0.0037
    1OPC    GL167784  28.019  28.497   6.376  0.0826 -0.0636  0.0729
    1OPC    GL267785  28.081  28.270   6.168  0.1479 -0.0969  0.0764
    1OPC    C1B67786  27.970  28.223   5.741 -0.0162 -0.0482  0.3238
    1OPC    D2B67787  27.956  28.316   5.280 -0.0936 -0.0530 -0.1932
    1OPC    C3B67788  28.322  28.523   5.058 -0.4371  0.0518  0.0258
    1OPC    C4B67789  28.377  28.947   4.947  0.1133 -0.1161  0.3433
    1OPC    NC367790  13.725  23.071   6.712  0.0429  0.0974 -0.1541
    1OPC    PO467791  13.299  23.182   6.723 -0.1865  0.2407 -0.1908
    1OPC    GL167792  13.124  23.177   6.322 -0.1253  0.2298  0.3480
    1OPC    GL267793  12.814  23.245   6.230  0.0003 -0.1715  0.1275
    1OPC    C1B67794  12.672  23.297   5.861 -0.0353 -0.2071 -0.0694
    1OPC    D2B67795  12.764  23.368   5.514 -0.0456  0.0122  0.1043
    1OPC    C3B67796  12.676  23.178   5.138 -0.3061 -0.2666  0.3477
    1OPC    C4B67797  12.850  23.012   4.764 -0.1022 -0.2582 -0.1069
    1OPC    NC367798  13.126  26.463   8.658  0.1335 -0.1272  0.0748
    1OPC    PO467799  13.265  26.712   8.307  0.0073  0.1503  0.0329
    1OPC    GL167800  13.015  26.851   7.875 -0.3800  0.1233 -0.0145
    1OPC    GL267801  13.142  26.817   7.620 -0.4495 -0.0709 -0.0555
    1OPC    C1B67802  13.344  26.981   7.162 -0.2136 -0.2171 -0.1073
    1OPC    D2B67803  13.523  26.917   6.610 -0.0172 -0.1879 -0.4290
    1OPC    C3B67804  13.306  26.852   6.248 -0.0294 -0.3457  0.0090
    1OPC    C4B67805  12.975  26.965   6.134 -0.1350  0.0369  0.1675
    1OPC    NC367806  15.265  26.737   7.174  0.2430  0.1538  0.0614
    1OPC    PO467807  15.417  26.961   7.284  0.0165  0.1656 -0.1484
    1OPC    GL167808  15.224  27.212   7.123  0.1565  0.0152 -0.2076
    1OPC    GL267809  15.334  27.423   6.922  0.3104 -0.0048  0.1990
    1OPC    C1B67810  15.328  27.843   6.776 -0.0871 -0.0041 -0.2899
    1OPC    D2B67811  15.442  28.179   6.573 -0.0129  0.0072 -0.0971
    1OPC    C3B67812  15.701  28.411   6.292 -0.2410  0.1981  0.0146
    1OPC    C4B67813  15.897  28.446   5.905 -0.0307  0.0005  0.3641
    1OPC    NC367814  22.164  27.778   6.758  0.0455  0.1312  0.4721
    1OPC    PO467815  22.108  27.469   6.958 -0.0817 -0.1506  0.0971
    1OPC    GL167816  22.017  27.335   6.478 -0.3308  0.1409  0.2081
    1OPC    GL267817  21.970  27.401   6.201  0.0496  0.1593 -0.0933
    1OPC    C1B67818  21.948  27.601   5.846 -0.2007 -0.0114 -0.1096
    1OPC    D2B67819  22.047  27.849   5.620 -0.0874  0.2294 -0.5631
    1OPC    C3B67820  22.371  27.776   5.293 -0.0075 -0.0336 -0.2297
    1OPC    C4B67821  22.620  27.691   4.905  0.2863  0.2758 -0.0179
    1OPC    NC367822  24.174   2.807   6.052  0.1932  0.0183  0.1443
    1OPC    PO467823  24.696   2.734   6.052  0.3698 -0.0918 -0.2786
    1OPC    GL167824  24.665   2.742   5.611 -0.4124  0.1683  0.0066
    1OPC    GL267825  24.376   2.698   5.398  0.0123 -0.1580  0.2120
    1OPC    C1B67826  24.067   2.939   5.173 -0.2937  0.1283  0.3272
    1OPC    D2B67827  23.656   2.998   4.955  0.2146 -0.4087  0.2710
    1OPC    C3B67828  23.435   2.718   4.788  0.2229 -0.1207 -0.0466
    1OPC    C4B67829  23.263   2.466   4.374 -0.2561 -0.0648 -0.0844
    1OPC    NC367830  21.688  27.600   6.723  0.2696 -0.0832 -0.1149
    1OPC    PO467831  21.701  28.016   6.717 -0.1178 -0.1560 -0.1054
    1OPC    GL167832  21.918  27.904   6.339  0.1431 -0.1685 -0.1224
    1OPC    GL267833  22.016  28.059   6.093  0.0831 -0.1177 -0.1471
    1OPC    C1B67834  22.026  28.406   5.823  0.0658  0.1387 -0.4586
    1OPC    D2B67835  22.351  28.798   5.667  0.1706 -0.0509  0.1807
    1OPC    C3B67836  22.581  29.031   5.363 -0.2689 -0.0909  0.0800
    1OPC    C4B67837  22.961  29.167   5.220 -0.1822  0.1410  0.1327
    1OPC    NC367838   5.718   4.215   6.722 -0.2057  0.1890 -0.1591
    1OPC    PO467839   5.653   4.204   6.309  0.1694  0.3210 -0.1774
    1OPC    GL167840   5.389   4.515   6.360 -0.2375  0.1747  0.0550
    1OPC    GL267841   5.284   4.605   6.062 -0.1021 -0.1184  0.2943
    1OPC    C1B67842   5.107   4.394   5.703 -0.0066  0.3143  0.1706
    1OPC    D2B67843   5.165   4.415   5.251 -0.1112  0.3256  0.1420
    1OPC    C3B67844   5.490   4.599   4.998 -0.0874  0.0938  0.2922
    1OPC    C4B67845   5.786   4.503   4.614  0.0696 -0.0431  0.0243
    1OPC    NC367846   6.844  24.293   6.146 -0.0517  0.0127 -0.2431
    1OPC    PO467847   6.855  23.901   5.931 -0.1344 -0.0894 -0.0772
    1OPC    GL167848   6.604  24.072   5.656 -0.3014 -0.1870 -0.5832
    1OPC    GL267849   6.276  24.147   5.611 -0.0730 -0.1077  0.1240
    1OPC    C1B67850   5.967  24.211   5.249 -0.0523  0.0327 -0.2220
    1OPC    D2B67851   5.939  24.616   5.004  0.0200 -0.3652  0.0248
    1OPC    C3B67852   5.967  25.014   5.161 -0.0012 -0.2804 -0.0920
    1OPC    C4B67853   6.088  25.338   5.502  0.1851 -0.1441 -0.1716
    1OPC    NC367854  10.744   8.932   7.582 -0.2576  0.1823  0.1668
    1OPC    PO467855  10.405   8.663   7.378 -0.1000 -0.3457 -0.1195
    1OPC    GL167856  10.046   8.732   7.032 -0.2916  0.0052 -0.1347
    1OPC    GL267857   9.957   8.608   6.644 -0.0151 -0.0673  0.0399
    1OPC    C1B67858   9.944   8.446   6.238  0.1451  0.0006 -0.0993
    1OPC    D2B67859   9.762   8.417   5.851 -0.0034 -0.1616 -0.0168
    1OPC    C3B67860   9.410   8.619   5.752  0.2390 -0.1477 -0.0406
    1OPC    C4B67861   9.167   8.938   5.970  0.2345  0.0168 -0.0238
    1OPC    NC367862   5.486  22.595   5.726 -0.2780 -0.2597  0.0203
    1OPC    PO467863   5.271  22.214   5.934  0.0832 -0.2744  0.0456
    1OPC    GL167864   5.178  22.237   5.527  0.0054  0.1482  0.0398
    1OPC    GL267865   4.983  22.123   5.280  0.0110  0.0005 -0.0423
    1OPC    C1B67866   4.993  22.095   4.884 -0.3122 -0.1661 -0.0336
    1OPC    D2B67867   5.119  21.822   4.578  0.1625  0.4337  0.0948
    1OPC    C3B67868   5.314  21.810   4.237  0.0353 -0.0882  0.0573
    1OPC    C4B67869   5.481  21.582   3.924  0.1993 -0.0104 -0.2928
    1OPC    NC367870  11.431  24.831   6.953 -0.2029  0.0611 -0.0921
    1OPC    PO467871  11.012  24.763   6.798 -0.1357  0.1242 -0.2237
    1OPC    GL167872  11.013  24.875   6.295 -0.2419 -0.1759  0.1381
    1OPC    GL267873  10.970  25.035   6.078  0.0073 -0.0268  0.1261
    1OPC    C1B67874  11.006  24.966   5.591 -0.0814  0.0376 -0.0756
    1OPC    D2B67875  10.902  24.913   5.180 -0.2630  0.1001 -0.2355
    1OPC    C3B67876  11.098  24.486   4.990 -0.3166 -0.2626 -0.0323
    1OPC    C4B67877  11.485  24.486   4.695 -0.1681  0.2071 -0.0859
    1OPC    NC367878  26.752  24.261   6.481 -0.4159 -0.0902 -0.0760
    1OPC    PO467879  27.083  24.075   6.750 -0.1712  0.0948 -0.0527
    1OPC    GL167880  27.099  23.955   6.335 -0.1739 -0.2836 -0.2359
    1OPC    GL267881  26.806  23.854   6.190 -0.0878 -0.4134  0.2184
    1OPC    C1B67882  26.467  23.715   5.875  0.0834 -0.2197  0.1483
    1OPC    D2B67883  26.049  23.800   5.610 -0.0065 -0.2386 -0.2071
    1OPC    C3B67884  25.912  23.481   5.396 -0.2373  0.0536  0.4132
    1OPC    C4B67885  26.001  23.049   5.424 -0.2756  0.1265  0.0339
    1OPC    NC367886  12.076  24.696   7.548  0.1054  0.0619  0.1745
    1OPC    PO467887  12.252  24.738   7.137  0.4342 -0.0955  0.0142
    1OPC    GL167888  12.456  24.736   6.764  0.0465 -0.1361  0.0743
    1OPC    GL267889  12.581  24.653   6.428  0.1472  0.1165 -0.1210
    1OPC    C1B67890  12.658  24.723   5.964  0.1389 -0.0745 -0.1953
    1OPC    D2B67891  12.796  24.787   5.449 -0.3833 -0.1073  0.0748
    1OPC    C3B67892  13.197  24.904   5.255 -0.0028 -0.3095 -0.3621
    1OPC    C4B67893  13.487  25.158   5.121  0.0831  0.2710  0.2395
    1OPC    NC367894  13.401   0.985   7.501 -0.1461  0.0697 -0.1585
    1OPC    PO467895  13.733   1.059   7.752 -0.3670  0.1738  0.1389
    1OPC    GL167896  13.917   0.974   7.349  0.3222 -0.0473  0.1511
    1OPC    GL267897  13.768   0.817   7.041 -0.1724  0.1086 -0.0497
    1OPC    C1B67898  13.680   0.801   6.635  0.2234  0.1669  0.1972
    1OPC    D2B67899  13.617   0.603   6.220  0.1285 -0.2725 -0.2109
    1OPC    C3B67900  13.318   0.849   5.936 -0.1719 -0.0952  0.2576
    1OPC    C4B67901  13.235   1.030   5.463  0.2618  0.2281 -0.3248
    1OPC    NC367902   9.796  22.384   6.025  0.3549 -0.0544 -0.0913
    1OPC    PO467903  10.136  22.743   5.984  0.3297  0.2121 -0.0669
    1OPC    GL167904   9.965  22.746   5.682  0.2437  0.1948 -0.1046
    1OPC    GL267905   9.667  22.812   5.601 -0.2017  0.0244 -0.0052
    1OPC    C1B67906   9.371  22.875   5.343 -0.1894 -0.0333 -0.1878
    1OPC    D2B67907   8.984  22.737   5.238  0.1045 -0.1567  0.0069
    1OPC    C3B67908   8.764  22.673   4.868  0.2335  0.0294 -0.0880
    1OPC    C4B67909   8.385  22.857   4.815  0.0697  0.0544 -0.0844
    1OPC    NC367910   8.820   2.101   7.056  0.0457 -0.0962  0.0263
    1OPC    PO467911   9.094   2.296   7.271  0.0844 -0.1282 -0.0619
    1OPC    GL167912   9.414   2.472   7.052  0.0964 -0.1415  0.0577
    1OPC    GL267913   9.540   2.414   6.832  0.0922 -0.0399  0.2761
    1OPC    C1B67914   9.445   2.466   6.365  0.1386 -0.0816 -0.0627
    1OPC    D2B67915   9.428   2.462   5.992  0.1743  0.2300  0.1208
    1OPC    C3B67916   9.729   2.584   5.712 -0.3453  0.1954 -0.2260
    1OPC    C4B67917   9.917   2.680   5.380 -0.1609  0.0761 -0.0290
    1OPC    NC367918   6.954   0.438   6.995  0.3090 -0.0018 -0.2278
    1OPC    PO467919   7.369   0.435   7.132  0.1107  0.0911 -0.0732
    1OPC    GL167920   7.247   0.847   6.886  0.0351 -0.0203  0.0987
    1OPC    GL267921   7.251   1.149   6.800  0.4551 -0.0230  0.0896
    1OPC    C1B67922   7.304   1.385   6.342 -0.0669  0.1518 -0.1858
    1OPC    D2B67923   7.284   1.470   5.930  0.0880  0.3655 -0.0247
    1OPC    C3B67924   7.554   1.804   5.901 -0.0941 -0.1363 -0.0745
    1OPC    C4B67925   7.976   2.008   5.834  0.0399  0.2261 -0.0401
    1OPC    NC367926  24.324  24.992   6.890  0.1163  0.2495  0.0351
    1OPC    PO467927  24.560  25.279   6.701  0.1180 -0.2014  0.0220
    1OPC    GL167928  24.849  25.698   6.633 -0.0273  0.2048  0.1885
    1OPC    GL267929  24.793  25.884   6.427 -0.1205  0.0181 -0.1197
    1OPC    C1B67930  24.845  25.733   6.002 -0.1453 -0.0647 -0.0656
    1OPC    D2B67931  25.013  25.402   5.672  0.1016 -0.1401  0.1056
    1OPC    C3B67932  24.842  25.594   5.311  0.1701 -0.1567  0.0399
    1OPC    C4B67933  24.563  25.560   4.926 -0.0698  0.0657 -0.2323
    1OPC    NC367934  28.952  10.720   6.719 -0.0421 -0.1083 -0.4789
    1OPC    PO467935  28.599  10.954   7.042 -0.2201  0.0887  0.0556
    1OPC    GL167936  28.360  10.870   6.753 -0.5013 -0.1617 -0.0063
    1OPC    GL267937  28.416  10.829   6.430  0.0907 -0.0416  0.1124
    1OPC    C1B67938  28.504  11.043   5.973  0.0911 -0.0730  0.0401
    1OPC    D2B67939  28.664  11.032   5.531 -0.3041  0.2731 -0.0627
    1OPC    C3B67940  28.992  10.811   5.426  0.0369  0.0910 -0.1790
    1OPC    C4B67941  29.389  10.737   5.283 -0.1077  0.0947  0.1191
    1OPC    NC367942  18.275   6.203   7.240  0.0617 -0.1416 -0.0979
    1OPC    PO467943  18.255   6.661   7.173 -0.1811 -0.1595 -0.0962
    1OPC    GL167944  17.882   6.323   6.862  0.3117  0.0519  0.0439
    1OPC    GL267945  17.625   6.298   6.587  0.0577  0.1202  0.2471
    1OPC    C1B67946  17.475   6.192   6.275  0.1961 -0.0386  0.0055
    1OPC    D2B67947  17.128   6.430   6.020  0.2426  0.0159  0.2297
    1OPC    C3B67948  17.000   6.201   5.697  0.1690  0.1231  0.0642
    1OPC    C4B67949  16.728   6.110   5.422 -0.1857  0.1889  0.2519
    1OPC    NC367950   0.551  17.675   6.257  0.2889 -0.1992  0.1205
    1OPC    PO467951   0.116  17.669   6.309  0.3824  0.0674 -0.3035
    1OPC    GL167952   0.197  17.620   5.914  0.1852  0.0101  0.3180
    1OPC    GL267953   0.168  17.386   5.679  0.1294 -0.1750 -0.1753
    1OPC    C1B67954   0.187  17.335   5.246  0.0063 -0.0715 -0.0310
    1OPC    D2B67955  -0.006  17.472   4.901  0.0693 -0.0120  0.0635
    1OPC    C3B67956   0.394  17.395   4.508 -0.0325  0.3298  0.3125
    1OPC    C4B67957   0.549  17.490   4.116 -0.0770 -0.1005  0.2536
    1OPC    NC367958   2.434   0.118   6.505 -0.0135  0.1537  0.3076
    1OPC    PO467959   2.100   0.302   6.236 -0.2049  0.1524  0.0509
    1OPC    GL167960   2.179  -0.032   6.021  0.1001 -0.0537  0.0312
    1OPC    GL267961   2.168  -0.136   5.781  0.0908 -0.0431 -0.0187
    1OPC    C1B67962   1.874  -0.044   5.385 -0.0327  0.1296  0.5457
    1OPC    D2B67963   1.617  -0.057   5.153 -0.1978  0.0253  0.4228
    1OPC    C3B67964   1.683   0.070   4.676 -0.0309 -0.0395 -0.0718
    1OPC    C4B67965   1.890   0.517   4.615  0.1484  0.0536 -0.2451
    1OPC    NC367966  16.215   4.867   7.675  0.1937 -0.1051  0.0689
    1OPC    PO467967  15.917   5.243   7.739 -0.2881 -0.0507  0.0827
    1OPC    GL167968  16.180   5.440   7.351 -0.0655  0.1263 -0.1597
    1OPC    GL267969  16.137   5.456   7.110  0.0458 -0.1738  0.0495
    1OPC    C1B67970  16.178   5.730   6.718  0.1488 -0.1319  0.0106
    1OPC    D2B67971  16.330   5.958   6.373 -0.0228 -0.0059 -0.1110
    1OPC    C3B67972  16.719   6.313   6.355  0.2669  0.1132  0.0697
    1OPC    C4B67973  17.087   6.338   6.554 -0.0134 -0.0581 -0.1743
    1OPC    NC367974  24.081  17.260   6.585  0.1233 -0.0512  0.0020
    1OPC    PO467975  23.813  16.867   6.515  0.1032  0.1996  0.2987
    1OPC    GL167976  24.123  16.784   6.338  0.0401 -0.1668 -0.1813
    1OPC    GL267977  24.232  16.799   5.990 -0.1640 -0.0475  0.1088
    1OPC    C1B67978  24.255  16.624   5.665  0.2069 -0.1851 -0.1306
    1OPC    D2B67979  23.998  16.546   5.350  0.2685 -0.0705 -0.0784
    1OPC    C3B67980  24.148  16.529   5.015 -0.0275  0.2071  0.0927
    1OPC    C4B67981  24.356  16.413   4.603  0.1703  0.4286 -0.0670
    1OPC    NC367982   7.043  25.228   7.431  0.1243 -0.0880 -0.0163
    1OPC    PO467983   7.366  25.483   7.235 -0.2481  0.1671  0.0004
    1OPC    GL167984   7.198  25.431   6.738 -0.0448  0.1897 -0.0174
    1OPC    GL267985   7.251  25.548   6.507  0.3245 -0.1415 -0.2113
    1OPC    C1B67986   7.254  25.781   6.179  0.1424  0.1063  0.1491
    1OPC    D2B67987   7.360  25.885   5.837  0.1631 -0.0902 -0.1296
    1OPC    C3B67988   7.622  26.084   5.552 -0.3611  0.1117  0.1268
    1OPC    C4B67989   7.866  26.418   5.308  0.1237 -0.0283  0.0474
    1OPC    NC367990  21.673  28.628   6.448 -0.0903  0.5009 -0.2279
    1OPC    PO467991  22.096  28.752   6.562 -0.0021 -0.2209 -0.1434
    1OPC    GL167992  22.256  28.615   6.215  0.1090  0.1307  0.1123
    1OPC    GL267993  22.561  28.397   6.060  0.0375 -0.1895  0.2101
    1OPC    C1B67994  22.857  28.588   5.843 -0.4123 -0.1031 -0.1999
    1OPC    D2B67995  22.961  29.005   5.743 -0.2818  0.2105  0.2947
    1OPC    C3B67996  23.309  29.351   5.772 -0.2175 -0.0314 -0.0704
    1OPC    C4B67997  23.764  29.492   5.868  0.0047  0.5084 -0.0713
    1OPC    NC367998  22.605  24.289   6.773  0.1428 -0.0015 -0.2422
    1OPC    PO467999  22.810  24.649   6.817 -0.3171  0.0976 -0.1030
    1OPC    GL168000  22.941  24.521   6.467  0.2429 -0.2111  0.2859
    1OPC    GL268001  22.617  24.421   6.260 -0.2148 -0.2030  0.1716
    1OPC    C1B68002  22.338  24.300   6.000 -0.0514 -0.2044 -0.0926
    1OPC    D2B68003  21.941  24.371   6.013 -0.0177 -0.1388  0.1667
    1OPC    C3B68004  21.713  24.512   5.675 -0.0003  0.0438 -0.1437
    1OPC    C4B68005  21.557  24.411   5.263  0.2532  0.0511 -0.1654
    1OPC    NC368006   6.141  14.764   7.030 -0.1649  0.1711 -0.2047
    1OPC    PO468007   6.192  14.788   6.659 -0.2629 -0.0343 -0.0989
    1OPC    GL168008   6.220  14.728   6.229 -0.0017  0.0600  0.2525
    1OPC    GL268009   6.176  14.492   5.959 -0.1971  0.4666  0.1098
    1OPC    C1B68010   6.318  14.224   5.588  0.1838  0.1844  0.1434
    1OPC    D2B68011   6.640  13.905   5.446  0.0365 -0.3977  0.0157
    1OPC    C3B68012   6.557  13.654   5.051 -0.3490  0.1367  0.1960
    1OPC    C4B68013   6.337  13.462   4.660  0.1504 -0.3779 -0.0246
    1OPC    NC368014  24.341  10.200   6.459 -0.0079  0.0964 -0.0843
    1OPC    PO468015  23.939  10.144   6.311  0.1796  0.0390  0.1137
    1OPC    GL168016  23.973  10.129   5.874  0.0772 -0.2637  0.0813
    1OPC    GL268017  24.113  10.102   5.541  0.1893 -0.0262  0.0551
    1OPC    C1B68018  24.079  10.115   5.086  0.3767 -0.1373  0.3332
    1OPC    D2B68019  24.347  10.230   4.734 -0.3295  0.1641 -0.1064
    1OPC    C3B68020  24.309  10.254   4.346  0.1738  0.0441  0.1814
    1OPC    C4B68021  24.295  10.476   3.957 -0.1307 -0.0015  0.1312
    1OPC    NC368022   6.683  10.859   7.339  0.0224  0.1449 -0.1123
    1OPC    PO468023   6.363  10.859   6.902 -0.2287  0.1087 -0.1771
    1OPC    GL168024   6.403  10.889   6.564  0.0935 -0.0309  0.0390
    1OPC    GL268025   6.400  10.738   6.237  0.0043 -0.2594  0.1232
    1OPC    C1B68026   6.386  10.450   5.932 -0.0672  0.0737  0.3178
    1OPC    D2B68027   6.725  10.420   5.570  0.1630  0.2141 -0.2123
    1OPC    C3B68028   6.676  10.525   5.074  0.2215 -0.1614 -0.2472
    1OPC    C4B68029   6.416  10.540   4.715  0.0897  0.0907 -0.1065
    1OPC    NC368030   7.175  26.016   7.312  0.2313  0.1481 -0.1433
    1OPC    PO468031   7.483  26.284   7.088 -0.3756  0.1011  0.1307
    1OPC    GL168032   7.361  25.901   6.878 -0.0186  0.2869  0.1628
    1OPC    GL268033   7.196  26.043   6.633 -0.0024 -0.1048  0.2563
    1OPC    C1B68034   7.469  26.327   6.343  0.0052  0.5054 -0.1955
    1OPC    D2B68035   7.511  26.450   5.925 -0.2509  0.1022  0.4155
    1OPC    C3B68036   7.732  26.674   5.701  0.2667 -0.1004  0.2761
    1OPC    C4B68037   7.794  26.937   5.319  0.0675  0.2765 -0.0869
    1OPC    NC368038  21.707  20.495   6.833  0.0746  0.0044  0.4218
    1OPC    PO468039  21.915  20.980   6.936  0.0746  0.3994  0.0445
    1OPC    GL168040  21.881  20.765   6.460  0.0246  0.0686 -0.0011
    1OPC    GL268041  21.848  20.566   6.265  0.0971 -0.1133  0.0522
    1OPC    C1B68042  21.830  20.538   5.791  0.0031 -0.2114  0.0474
    1OPC    D2B68043  21.901  20.493   5.288 -0.3980 -0.1035  0.3325
    1OPC    C3B68044  22.289  20.274   5.220 -0.4438 -0.0671  0.2790
    1OPC    C4B68045  22.754  20.245   5.288  0.1653  0.1181 -0.2552
    1OPC    NC368046   2.524   4.563   6.780 -0.0513 -0.2700 -0.2652
    1OPC    PO468047   2.417   4.458   6.327 -0.0918  0.1097 -0.2025
    1OPC    GL168048   2.789   4.236   6.116 -0.1377 -0.0810  0.4917
    1OPC    GL268049   3.040   4.176   5.909  0.0654  0.0511 -0.3113
    1OPC    C1B68050   3.234   4.374   5.546  0.1961 -0.0053 -0.0071
    1OPC    D2B68051   3.141   4.673   5.213 -0.1764  0.1327  0.0164
    1OPC    C3B68052   3.264   4.511   4.786  0.2333  0.1622  0.1444
    1OPC    C4B68053   3.599   4.269   4.684 -0.1810  0.1207 -0.1853
    1OPC    NC368054  19.410   5.544   7.694 -0.1189 -0.2740 -0.0040
    1OPC    PO468055  19.609   5.759   7.239  0.0080 -0.2219 -0.1361
    1OPC    GL168056  19.866   5.912   6.935 -0.0291 -0.2133  0.0579
    1OPC    GL268057  20.008   5.847   6.642  0.3118 -0.0153  0.1640
    1OPC    C1B68058  19.939   5.790   6.189 -0.2601  0.0549 -0.1537
    1OPC    D2B68059  19.983   5.898   5.785  0.1563  0.0540  0.0886
    1OPC    C3B68060  19.623   5.891   5.498 -0.0444 -0.1645  0.2771
    1OPC    C4B68061  19.375   5.654   5.316  0.0329 -0.1277  0.2220
    1OPC    NC368062   5.807  13.414   7.042  0.0717 -0.2350 -0.1089
    1OPC    PO468063   5.826  13.447   6.727 -0.3289  0.0240 -0.0070
    1OPC    GL168064   5.784  13.730   6.429  0.1825 -0.0966 -0.1447
    1OPC    GL268065   5.746  13.735   6.027  0.1259  0.1763 -0.0139
    1OPC    C1B68066   5.593  13.677   5.598  0.1902 -0.4207  0.0447
    1OPC    D2B68067   5.790  13.631   5.223  0.0148 -0.0441 -0.1502
    1OPC    C3B68068   6.129  13.912   5.112 -0.2363 -0.0785 -0.0096
    1OPC    C4B68069   6.065  14.364   4.898  0.3469 -0.1795  0.1029
    1OPC    NC368070  12.331  22.440   6.558 -0.0053  0.0141  0.1267
    1OPC    PO468071  12.057  22.452   6.227 -0.3423 -0.0129 -0.1413
    1OPC    GL168072  11.674  22.243   6.015  0.0976  0.1197  0.0653
    1OPC    GL268073  11.725  21.973   5.812 -0.4246 -0.0744 -0.2545
    1OPC    C1B68074  11.956  22.017   5.428  0.0163  0.0693  0.0746
    1OPC    D2B68075  11.996  21.982   5.004  0.2489  0.4402 -0.2098
    1OPC    C3B68076  11.595  22.096   4.902 -0.2614 -0.0760 -0.1953
    1OPC    C4B68077  11.170  22.073   4.659 -0.1095 -0.3361 -0.1723
    1OPC    NC368078   5.329  18.315   6.001 -0.2485  0.0223 -0.2736
    1OPC    PO468079   5.707  18.217   6.262 -0.0710 -0.0510 -0.1140
    1OPC    GL168080   5.948  18.242   5.969 -0.1609  0.1717  0.0321
    1OPC    GL268081   6.152  17.976   5.720 -0.1553 -0.1706 -0.3361
    1OPC    C1B68082   6.282  17.943   5.380 -0.1237  0.0083 -0.2385
    1OPC    D2B68083   6.331  18.113   4.889 -0.1867 -0.0216 -0.0915
    1OPC    C3B68084   5.900  18.134   4.590 -0.1402 -0.0726  0.0431
    1OPC    C4B68085   5.556  17.992   4.393  0.0343 -0.1357 -0.1836
    1OPC    NC368086   4.401  28.754   6.685  0.2466  0.2823  0.1352
    1OPC    PO468087   4.897  28.671   6.841  0.0673  0.2582 -0.1344
    1OPC    GL168088   4.856  28.965   6.573  0.0027 -0.0801 -0.1286
    1OPC    GL268089   4.709  28.979   6.280  0.1979  0.0962  0.1740
    1OPC    C1B68090   4.461  29.061   5.905 -0.0631 -0.2278 -0.2556
    1OPC    D2B68091   4.159  29.267   5.632  0.1419 -0.0208 -0.0177
    1OPC    C3B68092   3.822  28.978   5.490  0.3358  0.0986 -0.1622
    1OPC    C4B68093   3.537  28.596   5.447 -0.1528 -0.0969 -0.2664
    1OPC    NC368094   4.726  13.084   6.173 -0.2639 -0.2175 -0.0446
    1OPC    PO468095   4.348  13.271   6.426 -0.2376 -0.0758 -0.1052
    1OPC    GL168096   4.232  13.170   5.961 -0.2295  0.2005 -0.0626
    1OPC    GL268097   4.072  13.031   5.724 -0.0404  0.1886 -0.1381
    1OPC    C1B68098   3.885  12.825   5.439 -0.0191 -0.4537  0.4594
    1OPC    D2B68099   4.100  12.966   5.036 -0.0130 -0.0014 -0.1050
    1OPC    C3B68100   4.340  12.582   4.739 -0.1862  0.1682  0.0552
    1OPC    C4B68101   4.591  12.405   4.332 -0.0585  0.1544 -0.2729
    1OPC    NC368102   5.296  12.038   7.126  0.2541  0.2993 -0.1945
    1OPC    PO468103   5.418  12.362   6.953  0.0328  0.1799  0.1798
    1OPC    GL168104   5.352  12.497   6.568  0.1822  0.5321 -0.0607
    1OPC    GL268105   5.345  12.290   6.243  0.0989  0.2827 -0.3108
    1OPC    C1B68106   5.264  12.307   5.779  0.2620 -0.1907 -0.0746
    1OPC    D2B68107   5.198  12.258   5.355  0.1919 -0.0073 -0.1571
    1OPC    C3B68108   5.219  12.677   5.143  0.0125  0.2153 -0.4429
    1OPC    C4B68109   5.150  12.977   4.887 -0.1798 -0.0767  0.0779
    1OPC    NC368110   4.142   2.815   6.742 -0.0318  0.0074  0.0909
    1OPC    PO468111   4.367   3.117   6.491  0.2534  0.1014 -0.0050
    1OPC    GL168112   4.127   3.250   6.068  0.3617 -0.0723 -0.1477
    1OPC    GL268113   3.993   3.391   5.850  0.1091 -0.0424  0.2717
    1OPC    C1B68114   3.664   3.418   5.616  0.1212  0.2103 -0.0879
    1OPC    D2B68115   3.496   3.410   5.251  0.2249 -0.2289 -0.0693
    1OPC    C3B68116   3.267   3.740   4.974  0.3365 -0.0759  0.2942
    1OPC    C4B68117   3.012   3.991   4.668 -0.1556  0.1158 -0.2124
    1OPC    NC368118   3.215   5.702   6.205  0.2065 -0.2115  0.3272
    1OPC    PO468119   3.485   5.588   5.797 -0.1553  0.0490  0.0157
    1OPC    GL168120   3.515   5.492   5.375  0.2837  0.0003  0.2310
    1OPC    GL268121   3.667   5.345   5.200  0.0645  0.2144  0.1538
    1OPC    C1B68122   3.697   5.162   4.802  0.4727  0.1469  0.1548
    1OPC    D2B68123   3.450   5.104   4.479  0.2617 -0.2829  0.1843
    1OPC    C3B68124   3.090   5.400   4.374 -0.1332  0.2963  0.0165
    1OPC    C4B68125   2.690   5.506   4.592 -0.1306 -0.3223 -0.1669
    1OPC    NC368126   5.938  21.612   5.963 -0.1386  0.0418  0.2862
    1OPC    PO468127   5.597  21.658   5.909  0.3125 -0.0405  0.2655
    1OPC    GL168128   5.390  21.720   5.640  0.0530  0.1455  0.1949
    1OPC    GL268129   5.374  21.836   5.384 -0.0334 -0.0906 -0.1028
    1OPC    C1B68130   5.218  21.674   5.080  0.2257 -0.1315  0.1202
    1OPC    D2B68131   5.003  21.341   4.888 -0.0012  0.1345  0.1629
    1OPC    C3B68132   5.024  21.342   4.454 -0.1975  0.0587 -0.3716
    1OPC    C4B68133   4.882  21.515   4.010 -0.1341  0.1390 -0.0880
    1OPC    NC368134   3.505  23.157   5.856 -0.0147 -0.2345 -0.0474
    1OPC    PO468135   3.702  23.601   5.852 -0.1834  0.0569  0.0388
    1OPC    GL168136   3.991  24.017   5.721  0.0996 -0.3306 -0.0258
    1OPC    GL268137   3.975  24.271   5.498 -0.1122 -0.0447 -0.1157
    1OPC    C1B68138   3.953  24.504   5.115  0.1019 -0.0668  0.2298
    1OPC    D2B68139   3.832  24.728   4.862  0.1728  0.2827 -0.2503
    1OPC    C3B68140   3.603  24.587   4.542 -0.1556 -0.1663  0.1605
    1OPC    C4B68141   3.260  24.658   4.220  0.3340  0.1703  0.2112
    1OPC    NC368142   3.959   7.409   6.402 -0.1470  0.1106 -0.1592
    1OPC    PO468143   3.599   7.580   6.361 -0.1149  0.0008 -0.0613
    1OPC    GL168144   3.816   7.684   6.022 -0.3401  0.0008  0.2809
    1OPC    GL268145   4.071   7.907   5.884  0.2001 -0.1777  0.1685
    1OPC    C1B68146   4.324   8.021   5.523  0.1534 -0.3547 -0.0059
    1OPC    D2B68147   4.239   8.082   5.044 -0.3687  0.1731 -0.0788
    1OPC    C3B68148   4.403   7.941   4.736  0.0571  0.0297  0.0123
    1OPC    C4B68149   4.457   7.709   4.274 -0.0687  0.2049 -0.2014
    1OPC    NC368150   6.396  25.549   6.826 -0.0507 -0.1860 -0.0820
    1OPC    PO468151   6.444  25.124   6.607 -0.1422  0.2365 -0.3034
    1OPC    GL168152   6.773  25.299   6.433 -0.0825 -0.0915 -0.0551
    1OPC    GL268153   6.901  25.312   6.153 -0.2095 -0.0989 -0.0040
    1OPC    C1B68154   6.824  25.170   5.804 -0.1134 -0.1883  0.3118
    1OPC    D2B68155   6.473  25.069   5.579 -0.0391 -0.1558  0.0746
    1OPC    C3B68156   6.459  25.048   5.103  0.0231 -0.3420 -0.1952
    1OPC    C4B68157   6.494  25.045   4.684  0.1481 -0.0853  0.2869
    1OPC    NC368158  19.092  20.549   7.214  0.0157 -0.1666  0.2426
    1OPC    PO468159  18.899  20.951   7.149  0.0119  0.1067 -0.0367
    1OPC    GL168160  18.965  20.802   6.766 -0.0576 -0.2095 -0.0068
    1OPC    GL268161  18.763  20.808   6.478 -0.0550 -0.1345 -0.0145
    1OPC    C1B68162  18.605  20.795   6.074  0.1917 -0.0498 -0.2360
    1OPC    D2B68163  18.872  20.855   5.741 -0.2553 -0.0372 -0.0091
    1OPC    C3B68164  19.214  21.116   5.981 -0.1210 -0.1094  0.0149
    1OPC    C4B68165  19.490  21.420   6.098  0.0529 -0.1082 -0.0395
    1OPC    NC368166  25.969  16.091   6.161 -0.1366 -0.1012 -0.2417
    1OPC    PO468167  26.238  15.898   5.991 -0.0252 -0.1834  0.1434
    1OPC    GL168168  26.032  16.060   5.583  0.0788 -0.0150  0.1794
    1OPC    GL268169  25.885  16.196   5.277  0.1321 -0.0575 -0.0996
    1OPC    C1B68170  25.747  16.439   4.897 -0.4074 -0.2810 -0.2926
    1OPC    D2B68171  25.979  16.601   4.417 -0.1950 -0.3780 -0.1140
    1OPC    C3B68172  26.302  16.904   4.488  0.2722  0.2418 -0.1108
    1OPC    C4B68173  26.611  17.173   4.757  0.0262  0.2146 -0.4378
    1OPC    NC368174  26.812  23.661   6.676  0.3042 -0.0346 -0.1419
    1OPC    PO468175  26.644  23.536   7.024  0.0059  0.4054  0.0010
    1OPC    GL168176  26.376  23.375   6.685  0.0053 -0.0079 -0.0391
    1OPC    GL268177  26.142  23.319   6.445  0.4237  0.1583  0.0361
    1OPC    C1B68178  26.094  23.530   6.067 -0.1966 -0.3019  0.2020
    1OPC    D2B68179  26.224  23.320   5.732 -0.0534  0.0680 -0.1823
    1OPC    C3B68180  26.419  23.537   5.289  0.1751  0.4600 -0.1438
    1OPC    C4B68181  26.246  23.612   4.909  0.1496  0.1915  0.0205
    1OPC    NC368182  28.281   4.903   6.582  0.1424  0.0552  0.0482
    1OPC    PO468183  28.146   5.185   6.433 -0.2911  0.1367 -0.1467
    1OPC    GL168184  28.070   4.964   6.014 -0.3611 -0.1363  0.0677
    1OPC    GL268185  28.103   4.975   5.593 -0.2216  0.3781  0.2916
    1OPC    C1B68186  28.221   5.084   5.117 -0.2283  0.0871  0.0024
    1OPC    D2B68187  28.426   5.392   4.729  0.0107  0.2579 -0.2214
    1OPC    C3B68188  28.645   5.189   4.386 -0.0087  0.0408 -0.2398
    1OPC    C4B68189  28.997   4.761   4.309 -0.0279 -0.0474  0.0628
    1OPC    NC368190  24.433   7.602   6.958  0.1419  0.1953 -0.1796
    1OPC    PO468191  24.593   7.787   6.630 -0.1389 -0.0350 -0.2624
    1OPC    GL168192  24.481   7.514   6.206 -0.1362  0.2291  0.2087
    1OPC    GL268193  24.465   7.514   5.900  0.0312  0.2898 -0.1080
    1OPC    C1B68194  24.784   7.581   5.598 -0.0374 -0.0234 -0.0797
    1OPC    D2B68195  25.108   7.463   5.259 -0.0897  0.0354  0.1161
    1OPC    C3B68196  25.039   7.728   4.982 -0.2588  0.0772 -0.0042
    1OPC    C4B68197  24.918   8.013   4.758  0.0233 -0.0371 -0.0913
    1OPC    NC368198  12.040   8.968   8.151  0.2159  0.0325  0.2214
    1OPC    PO468199  12.112   9.153   7.708  0.0616 -0.1052  0.3100
    1OPC    GL168200  12.082   9.295   7.307 -0.4353 -0.1385 -0.0027
    1OPC    GL268201  12.034   9.203   7.040 -0.1891  0.0235 -0.1678
    1OPC    C1B68202  12.172   9.418   6.654 -0.2584 -0.0882  0.0479
    1OPC    D2B68203  12.391   9.568   6.457 -0.0468 -0.2501  0.0163
    1OPC    C3B68204  12.450   9.301   6.174 -0.0143 -0.2217  0.2936
    1OPC    C4B68205  12.434   9.137   5.738 -0.1066  0.1266  0.5043
    1OPC    NC368206  24.664   9.405   6.496  0.2525 -0.2104  0.1519
    1OPC    PO468207  24.364   9.687   6.349 -0.0782  0.0657 -0.0402
    1OPC    GL168208  24.431   9.409   6.048  0.0508 -0.0949 -0.3285
    1OPC    GL268209  24.330   9.189   5.785 -0.1870  0.0737 -0.0298
    1OPC    C1B68210  24.080   9.169   5.466 -0.2938  0.0372  0.0842
    1OPC    D2B68211  23.726   9.192   5.299  0.0433 -0.0886  0.0830
    1OPC    C3B68212  23.713   9.468   4.872 -0.1275 -0.0631  0.0851
    1OPC    C4B68213  23.660   9.586   4.348  0.0114 -0.2977 -0.2346
    1OPC    NC368214   7.114  21.910   6.591  0.3997  0.0195  0.1730
    1OPC    PO468215   7.022  21.792   6.162 -0.2967  0.1245 -0.1103
    1OPC    GL168216   7.016  21.847   5.717  0.2645 -0.1941  0.0489
    1OPC    GL268217   7.073  21.608   5.438  0.0165 -0.1481  0.3885
    1OPC    C1B68218   7.177  21.596   4.962  0.0938 -0.0143  0.0982
    1OPC    D2B68219   7.358  21.207   4.773  0.0569 -0.1821 -0.0396
    1OPC    C3B68220   7.444  21.106   4.368  0.2585  0.2441  0.0811
    1OPC    C4B68221   7.615  20.761   4.009  0.1626 -0.1754 -0.1599
    1OPC    NC368222  24.582   5.107   5.722  0.1139 -0.1401  0.2271
    1OPC    PO468223  24.895   5.076   6.004  0.1459 -0.0571 -0.3256
    1OPC    GL168224  24.983   5.389   5.789 -0.1907  0.1048 -0.0308
    1OPC    GL268225  24.979   5.558   5.502  0.2601 -0.0952 -0.1074
    1OPC    C1B68226  25.052   5.720   5.047 -0.2592  0.1512 -0.1035
    1OPC    D2B68227  25.518   5.793   4.981  0.1667  0.2145  0.0365
    1OPC    C3B68228  25.539   5.466   4.830  0.2837  0.1761 -0.2831
    1OPC    C4B68229  25.875   5.177   4.677 -0.0136 -0.1736  0.2248
    1OPC    NC368230   0.421  21.408   6.158 -0.0193  0.0521  0.0004
    1OPC    PO468231   0.395  21.804   6.218 -0.0662 -0.0430 -0.1521
    1OPC    GL168232   0.370  21.762   5.751 -0.0967  0.1063  0.1884
    1OPC    GL268233   0.335  21.589   5.587 -0.2030 -0.0448  0.2429
    1OPC    C1B68234   0.604  21.543   5.257  0.0230  0.0283  0.2807
    1OPC    D2B68235   0.993  21.250   5.086 -0.0393  0.0999  0.1332
    1OPC    C3B68236   0.862  20.982   4.810  0.1176  0.2143  0.1951
    1OPC    C4B68237   0.959  20.689   4.453 -0.1959 -0.0952  0.1001
    1OPC    NC368238   2.836  20.999   6.397  0.1053  0.2084 -0.0309
    1OPC    PO468239   2.851  20.544   6.578  0.5456  0.3423  0.0896
    1OPC    GL168240   2.809  20.580   6.080  0.2977 -0.0136  0.0243
    1OPC    GL268241   2.762  20.614   5.777  0.0909  0.2922 -0.0229
    1OPC    C1B68242   2.869  20.529   5.307 -0.2275  0.2217 -0.3653
    1OPC    D2B68243   2.710  20.481   4.976 -0.0361 -0.2840  0.2523
    1OPC    C3B68244   2.862  20.332   4.611 -0.2164 -0.0217 -0.0833
    1OPC    C4B68245   3.187  20.185   4.474  0.0024  0.0211 -0.1054
    1OPC    NC368246   0.220  11.183   6.849  0.0316  0.2801 -0.0831
    1OPC    PO468247   0.047  10.861   6.567 -0.0329  0.0203  0.0322
    1OPC    GL168248   0.148  10.660   6.184  0.0883 -0.0754 -0.1710
    1OPC    GL268249   0.030  10.600   5.784 -0.0665 -0.0848  0.0926
    1OPC    C1B68250  -0.251  10.274   5.411  0.0331 -0.1035 -0.2503
    1OPC    D2B68251  -0.385  10.057   5.076  0.1671  0.0779  0.1595
    1OPC    C3B68252  -0.162  10.184   4.681  0.4006  0.2038 -0.0288
    1OPC    C4B68253  -0.032  10.273   4.189  0.1172  0.3150  0.1623
    1OPC    NC368254  18.696  26.597   7.737 -0.0309 -0.1134 -0.3418
    1OPC    PO468255  18.717  26.341   7.359 -0.1033 -0.0241  0.0535
    1OPC    GL168256  18.570  26.685   7.056 -0.2176  0.1751 -0.3388
    1OPC    GL268257  18.561  26.771   6.695  0.0963  0.2572  0.1632
    1OPC    C1B68258  18.341  26.645   6.399  0.0715 -0.1005  0.0069
    1OPC    D2B68259  18.032  26.217   6.372 -0.0340  0.2481  0.2830
    1OPC    C3B68260  17.751  26.302   6.648  0.0150  0.3678 -0.2607
    1OPC    C4B68261  17.338  26.703   6.631  0.1180  0.0412 -0.3108
    1OPC    NC368262  21.025  26.156   6.703 -0.0290 -0.2960  0.1747
    1OPC    PO468263  21.454  25.960   6.903 -0.1660  0.1274  0.1052
    1OPC    GL168264  21.534  25.572   6.672  0.0235 -0.3079  0.0772
    1OPC    GL268265  21.513  25.558   6.391  0.2568 -0.1438 -0.0791
    1OPC    C1B68266  21.529  25.911   5.990 -0.3024  0.5328  0.0636
    1OPC    D2B68267  21.839  26.067   5.753 -0.0115  0.0646 -0.0319
    1OPC    C3B68268  21.916  26.055   5.216  0.1192  0.3492 -0.1349
    1OPC    C4B68269  21.870  26.080   4.761 -0.3075 -0.0386  0.1064
    1OPC    NC368270   2.587  18.065   6.384  0.0779 -0.1999 -0.1513
    1OPC    PO468271   2.082  18.221   6.275 -0.1028 -0.1458 -0.0504
    1OPC    GL168272   1.948  18.118   5.870 -0.0260 -0.1514 -0.0599
    1OPC    GL268273   1.968  18.002   5.562 -0.1499  0.0273 -0.1325
    1OPC    C1B68274   2.331  17.947   5.147  0.1954 -0.1066 -0.0446
    1OPC    D2B68275   2.727  18.010   4.925  0.2233 -0.0942 -0.1584
    1OPC    C3B68276   3.035  17.666   5.091 -0.2625 -0.0374  0.1153
    1OPC    C4B68277   3.383  17.768   4.912 -0.1678 -0.2804 -0.0469
    1OPC    NC368278  13.114  27.189   8.223 -0.1537  0.0560 -0.0497
    1OPC    PO468279  13.182  27.397   7.933 -0.2216  0.1440  0.1791
    1OPC    GL168280  13.383  27.407   7.675 -0.0912  0.2456  0.0946
    1OPC    GL268281  13.492  27.367   7.461 -0.1610  0.1170 -0.3254
    1OPC    C1B68282  13.477  27.483   7.041 -0.1524 -0.0132  0.1344
    1OPC    D2B68283  13.632  27.522   6.644  0.0921  0.0119  0.1427
    1OPC    C3B68284  13.410  27.879   6.410 -0.1834 -0.0902 -0.1325
    1OPC    C4B68285  13.079  28.110   6.344  0.1979  0.2765  0.0950
    1OPC    NC368286   4.562  22.446   5.928 -0.0177 -0.0527  0.0012
    1OPC    PO468287   4.218  22.518   5.780  0.0334  0.0741  0.1565
    1OPC    GL168288   4.358  22.109   5.552 -0.0532 -0.2779 -0.2608
    1OPC    GL268289   4.538  21.927   5.353  0.0979 -0.1450 -0.1308
    1OPC    C1B68290   4.774  21.560   5.314  0.1072  0.1030 -0.0942
    1OPC    D2B68291   5.086  21.316   5.439 -0.2076  0.0919 -0.0500
    1OPC    C3B68292   5.521  21.251   5.198 -0.1834 -0.0865 -0.1485
    1OPC    C4B68293   5.881  21.152   5.068  0.0643  0.1015 -0.3835
    1OPC    NC368294  11.513   4.122   7.782  0.5029  0.2240  0.2255
    1OPC    PO468295  11.421   4.116   7.308  0.0277  0.0304 -0.2814
    1OPC    GL168296  11.385   3.816   6.930  0.1841  0.1246  0.0331
    1OPC    GL268297  11.071   3.734   6.857  0.2799  0.4192 -0.2484
    1OPC    C1B68298  10.888   3.432   6.616  0.0977  0.1457 -0.0957
    1OPC    D2B68299  10.545   3.130   6.326 -0.0349  0.1313  0.1120
    1OPC    C3B68300  10.405   3.150   5.971 -0.0206 -0.0730  0.0248
    1OPC    C4B68301  10.385   3.345   5.574  0.1227 -0.0637 -0.1125
    1OPC    NC368302   4.242   1.442   7.281 -0.1284 -0.1217  0.0131
    1OPC    PO468303   4.338   1.686   6.860  0.1917 -0.2583  0.1022
    1OPC    GL168304   4.152   1.842   6.645 -0.5719  0.2557  0.1499
    1OPC    GL268305   4.279   1.926   6.325  0.0786  0.1567 -0.3018
    1OPC    C1B68306   4.380   1.959   5.946  0.0546 -0.1058  0.2020
    1OPC    D2B68307   4.747   2.094   5.779  0.0979  0.1894  0.1239
    1OPC    C3B68308   4.764   2.301   5.381  0.0558  0.3186 -0.2480
    1OPC    C4B68309   4.642   2.561   5.055  0.2305 -0.2207 -0.2054
    1OPC    NC368310   4.583  24.382   6.665 -0.0475 -0.0466 -0.2414
    1OPC    PO468311   4.692  24.575   6.266  0.2135  0.1474  0.0786
    1OPC    GL168312   4.667  24.420   5.852 -0.1290  0.1566  0.0949
    1OPC    GL268313   4.460  24.346   5.589 -0.1222 -0.3357  0.2319
    1OPC    C1B68314   4.449  24.302   5.114 -0.1909 -0.0102  0.2896
    1OPC    D2B68315   4.298  24.352   4.756 -0.0320  0.0595  0.0159
    1OPC    C3B68316   4.114  24.154   4.555 -0.0662 -0.2193  0.1124
    1OPC    C4B68317   4.113  23.918   4.184 -0.1647  0.0062 -0.2629
    1OPC    NC368318   8.926   5.896   7.953  0.0442 -0.2669  0.2590
    1OPC    PO468319   8.762   5.631   7.676 -0.0648  0.1240 -0.0139
    1OPC    GL168320   8.697   5.494   7.232  0.0263  0.1037  0.4147
    1OPC    GL268321   8.582   5.399   6.939  0.1360  0.0343 -0.3740
    1OPC    C1B68322   8.417   5.442   6.567  0.0531  0.4213 -0.0039
    1OPC    D2B68323   8.582   5.694   6.255  0.2596  0.2795  0.2639
    1OPC    C3B68324   8.499   5.483   5.866  0.2989 -0.1751 -0.2841
    1OPC    C4B68325   8.393   5.034   5.794 -0.1823 -0.1509 -0.0452
    1OPC    NC368326  26.175   6.836   6.382 -0.0093 -0.0571 -0.1702
    1OPC    PO468327  25.875   6.484   6.269  0.1909 -0.2200 -0.0802
    1OPC    GL168328  25.589   6.340   5.978  0.0247 -0.0061  0.6563
    1OPC    GL268329  25.423   6.253   5.747  0.1661  0.3078  0.3803
    1OPC    C1B68330  25.285   6.148   5.266  0.0002  0.1969 -0.3173
    1OPC    D2B68331  25.227   6.176   4.842  0.4150 -0.0282 -0.1697
    1OPC    C3B68332  25.243   5.892   4.519 -0.0076 -0.2076  0.4537
    1OPC    C4B68333  25.066   5.470   4.612 -0.1634 -0.4721 -0.1362
    1OPC    NC368334  22.981  16.015   6.336  0.1487  0.2221  0.0103
    1OPC    PO468335  23.018  16.414   6.288  0.0974 -0.0618  0.0981
    1OPC    GL168336  23.214  16.667   6.079  0.3375  0.0444 -0.0291
    1OPC    GL268337  23.253  16.776   5.855  0.1863  0.0504 -0.2136
    1OPC    C1B68338  23.254  16.741   5.441 -0.2793 -0.1623  0.1598
    1OPC    D2B68339  23.184  16.868   4.982 -0.0438 -0.1582 -0.0526
    1OPC    C3B68340  23.392  16.673   4.666  0.1591  0.3975 -0.1697
    1OPC    C4B68341  23.822  16.563   4.564  0.1742 -0.0616  0.0262
    1OPC    NC368342  18.901   0.898   7.784  0.1815 -0.3436  0.3127
    1OPC    PO468343  18.882   0.827   7.310 -0.1274 -0.1493 -0.1933
    1OPC    GL168344  18.872   0.820   6.868  0.1888 -0.0105 -0.1685
    1OPC    GL268345  18.919   0.875   6.608 -0.1690  0.1934  0.0365
    1OPC    C1B68346  19.010   0.694   6.253  0.2994 -0.1816  0.2381
    1OPC    D2B68347  18.923   0.499   5.867  0.0661  0.2818  0.2401
    1OPC    C3B68348  19.057   0.757   5.509  0.0041 -0.1917  0.5011
    1OPC    C4B68349  19.418   0.891   5.298  0.1031  0.0286 -0.2163
    1OPC    NC368350   2.841   4.795   6.196  0.1768 -0.1021 -0.0272
    1OPC    PO468351   2.780   5.180   6.120 -0.3996 -0.0145 -0.1267
    1OPC    GL168352   2.780   5.136   5.645 -0.0891  0.2174 -0.1568
    1OPC    GL268353   2.760   4.998   5.373 -0.1913  0.2634 -0.0909
    1OPC    C1B68354   2.776   5.099   4.906 -0.1494 -0.1465 -0.1704
    1OPC    D2B68355   2.958   5.012   4.588 -0.0231  0.0454  0.1202
    1OPC    C3B68356   3.092   4.674   4.345  0.0942  0.0874 -0.1538
    1OPC    C4B68357   3.251   4.274   4.305  0.2115 -0.1440 -0.1419
    1OPC    NC368358   0.262  28.704   6.721 -0.1313  0.1744 -0.2032
    1OPC    PO468359   0.040  28.437   6.380  0.1800  0.1072  0.0991
    1OPC    GL168360  -0.231  28.909   6.290  0.1134 -0.0538  0.2765
    1OPC    GL268361  -0.454  29.042   6.094  0.0899  0.0935  0.1977
    1OPC    C1B68362  -0.787  29.076   5.777  0.0894 -0.0419  0.1293
    1OPC    D2B68363  -0.994  29.178   5.410 -0.0922 -0.0175 -0.1595
    1OPC    C3B68364  -1.376  29.190   5.204 -0.0107  0.2771  0.2248
    1OPC    C4B68365  -1.718  29.456   4.959 -0.1167  0.2129  0.1365
    1OPC    NC368366  12.247  25.194   6.837 -0.2806 -0.0186  0.3416
    1OPC    PO468367  11.822  25.165   6.595  0.1279  0.3584 -0.0350
    1OPC    GL168368  11.895  24.933   6.217  0.3914 -0.0671 -0.0357
    1OPC    GL268369  12.182  24.828   6.041 -0.0736  0.2887  0.2881
    1OPC    C1B68370  12.242  24.790   5.610  0.3434  0.1178  0.1893
    1OPC    D2B68371  12.397  24.840   5.202  0.3200 -0.0548 -0.1610
    1OPC    C3B68372  12.731  25.017   5.031  0.0627 -0.0275 -0.1717
    1OPC    C4B68373  13.018  25.325   5.034  0.0736  0.0142 -0.2618
    1OPC    NC368374  25.503   0.737   6.734  0.0144  0.0634  0.2927
    1OPC    PO468375  25.347   0.829   6.432  0.1912  0.0571 -0.4255
    1OPC    GL168376  25.205   0.774   6.078  0.4856  0.2386 -0.0545
    1OPC    GL268377  25.161   0.787   5.751 -0.2771  0.0341 -0.4223
    1OPC    C1B68378  25.372   0.852   5.319 -0.0036  0.1443 -0.0512
    1OPC    D2B68379  25.377   0.949   4.904 -0.3944  0.1009  0.0292
    1OPC    C3B68380  25.296   0.512   4.839 -0.0144  0.3882  0.2063
    1OPC    C4B68381  25.454   0.233   5.128  0.0222 -0.0769  0.1809
    1OPC    NC368382   2.349   5.976   6.059 -0.0582  0.0101 -0.0389
    1OPC    PO468383   2.801   5.934   6.021 -0.1117 -0.1032  0.1576
    1OPC    GL168384   3.153   6.039   5.748 -0.0609  0.0670  0.2054
    1OPC    GL268385   3.243   5.935   5.446 -0.0047  0.1613  0.0863
    1OPC    C1B68386   3.731   5.881   5.268  0.2177  0.0384 -0.2105
    1OPC    D2B68387   4.131   5.534   5.079  0.1303 -0.0885  0.0423
    1OPC    C3B68388   4.415   5.641   4.773 -0.3039  0.1345  0.2741
    1OPC    C4B68389   4.482   5.371   4.375 -0.0595 -0.0584 -0.0474
    1OPC    NC368390   9.526  25.043   6.974  0.0720 -0.2129 -0.2498
    1OPC    PO468391   9.380  24.933   6.645 -0.0541  0.2148 -0.1577
    1OPC    GL168392   9.411  25.164   6.253 -0.2138 -0.0198 -0.0203
    1OPC    GL268393   9.179  25.363   6.016 -0.1530 -0.2335 -0.0447
    1OPC    C1B68394   9.300  25.667   5.714  0.1806 -0.2235  0.0924
    1OPC    D2B68395   9.113  26.077   5.569  0.1338 -0.2209 -0.0858
    1OPC    C3B68396   9.293  26.261   5.300  0.0795  0.2437  0.1780
    1OPC    C4B68397   9.207  26.296   4.881 -0.1087 -0.3458  0.1227
    1OPC    NC368398  17.819   2.608   6.699  0.0002  0.1941 -0.1030
    1OPC    PO468399  17.575   2.956   6.563  0.0170 -0.3668 -0.1225
    1OPC    GL168400  17.818   2.849   6.283  0.1962  0.2586  0.3113
    1OPC    GL268401  18.038   3.000   6.120 -0.1823  0.0272  0.0646
    1OPC    C1B68402  18.262   3.129   5.778 -0.0796 -0.1639  0.0307
    1OPC    D2B68403  18.244   3.100   5.334 -0.2822  0.2412 -0.1290
    1OPC    C3B68404  18.177   2.856   4.925  0.2166  0.1244 -0.2069
    1OPC    C4B68405  17.842   2.991   4.559 -0.0627 -0.1349 -0.0859
    1OPC    NC368406  26.888  14.009   5.985 -0.1340 -0.2046 -0.2498
    1OPC    PO468407  27.275  14.011   5.839 -0.0336 -0.1245  0.0071
    1OPC    GL168408  27.335  14.184   5.408  0.0019  0.3634 -0.0813
    1OPC    GL268409  27.614  14.061   5.319  0.2354  0.0173  0.1430
    1OPC    C1B68410  27.652  14.034   4.907 -0.3030  0.1537 -0.0257
    1OPC    D2B68411  27.793  14.188   4.489 -0.3984 -0.1977 -0.0411
    1OPC    C3B68412  28.059  13.847   4.218  0.3158 -0.0591 -0.2094
    1OPC    C4B68413  28.306  13.525   4.394  0.1070 -0.1330  0.2599
    1OPC    NC368414   9.928   2.491   7.229 -0.2194 -0.1115 -0.0585
    1OPC    PO468415   9.842   2.875   7.227  0.2953 -0.2563  0.1891
    1OPC    GL168416   9.560   2.938   6.918  0.0151 -0.1713  0.3714
    1OPC    GL268417   9.325   2.847   6.666  0.0473  0.1210 -0.0490
    1OPC    C1B68418   9.423   2.977   6.204  0.0668  0.1671 -0.4328
    1OPC    D2B68419   9.281   2.890   5.725  0.0522 -0.0404  0.3512
    1OPC    C3B68420   9.307   2.606   5.409  0.0771  0.0047  0.1508
    1OPC    C4B68421   9.369   2.259   5.126 -0.1838  0.1282 -0.1801
    1OPC    NC368422  19.091  27.491   6.833  0.0570 -0.1645 -0.3614
    1OPC    PO468423  18.558  27.222   6.903 -0.3072 -0.0070  0.1358
    1OPC    GL168424  18.258  27.207   6.594  0.0268  0.1751  0.1119
    1OPC    GL268425  18.114  27.266   6.340  0.1119  0.1382  0.1415
    1OPC    C1B68426  17.684  27.204   6.162  0.1765  0.0844 -0.0898
    1OPC    D2B68427  17.550  27.205   5.775 -0.0046  0.2266  0.0709
    1OPC    C3B68428  17.774  27.479   5.455 -0.0353  0.0230 -0.0731
    1OPC    C4B68429  17.546  27.707   5.224  0.1742  0.0803  0.0452
    1OPC    NC368430   2.561   7.794   7.066  0.1667 -0.1833  0.3824
    1OPC    PO468431   2.481   8.245   6.870 -0.1026  0.1197  0.1790
    1OPC    GL168432   2.273   8.515   6.558 -0.2345 -0.0720 -0.2268
    1OPC    GL268433   2.320   8.402   6.262  0.1613 -0.1354  0.1523
    1OPC    C1B68434   2.246   8.098   5.836 -0.2986  0.4191 -0.4239
    1OPC    D2B68435   2.447   7.868   5.561  0.1282 -0.1237  0.0614
    1OPC    C3B68436   2.546   8.178   5.175  0.0348  0.3367  0.3533
    1OPC    C4B68437   2.295   8.527   4.883  0.3117 -0.0352  0.1366
    1OPC    NC368438  17.009   4.812   7.114 -0.1802 -0.2269  0.0279
    1OPC    PO468439  17.510   4.663   7.074 -0.1606 -0.0953 -0.1725
    1OPC    GL168440  17.337   4.624   6.810  0.1287 -0.1221  0.2253
    1OPC    GL268441  17.481   4.568   6.478 -0.0830 -0.2235  0.0957
    1OPC    C1B68442  17.687   4.746   6.170  0.0747 -0.0168  0.0436
    1OPC    D2B68443  17.534   4.805   5.777 -0.1571  0.1696 -0.0317
    1OPC    C3B68444  17.194   4.529   5.519  0.1015 -0.2321  0.1032
    1OPC    C4B68445  17.114   4.125   5.592  0.1150 -0.2337 -0.0927
    1OPC    NC368446  28.381  11.431   6.752  0.0726  0.2561  0.1318
    1OPC    PO468447  28.736  11.706   6.725 -0.0477  0.2303 -0.1504
    1OPC    GL168448  28.819  11.639   6.374 -0.0280  0.1547  0.2152
    1OPC    GL268449  28.882  11.457   6.079  0.1863  0.2709  0.1072
    1OPC    C1B68450  28.925  11.479   5.674 -0.1506  0.1068 -0.1024
    1OPC    D2B68451  28.966  11.366   5.277  0.0350 -0.1774  0.0507
    1OPC    C3B68452  28.707  11.012   5.027  0.2848 -0.3144 -0.1803
    1OPC    C4B68453  28.460  10.867   4.652 -0.0296  0.0103  0.0813
    1OPC    NC368454  26.126  16.542   6.678 -0.1096 -0.0201 -0.2628
    1OPC    PO468455  25.867  16.551   6.307  0.0593 -0.1448  0.1346
    1OPC    GL168456  25.621  16.444   5.899 -0.0458  0.2803 -0.0354
    1OPC    GL268457  25.545  16.410   5.594 -0.1511  0.0494 -0.1169
    1OPC    C1B68458  25.659  16.771   5.372  0.0244  0.0976  0.2404
    1OPC    D2B68459  25.467  16.920   4.949 -0.2450 -0.0437  0.0427
    1OPC    C3B68460  25.763  16.966   4.713  0.0881 -0.0273  0.0901
    1OPC    C4B68461  25.824  17.206   4.312 -0.0867 -0.1218 -0.0550
    1OPC    NC368462  25.696   6.092   6.509 -0.0842 -0.1932  0.1623
    1OPC    PO468463  25.620   5.846   6.216 -0.0680 -0.3343  0.0740
    1OPC    GL168464  25.785   5.836   5.824 -0.0100  0.1406  0.1277
    1OPC    GL268465  25.879   6.020   5.659 -0.1882 -0.4002 -0.2203
    1OPC    C1B68466  25.808   6.346   5.220  0.1724  0.1980 -0.0214
    1OPC    D2B68467  25.681   6.296   4.844 -0.0805 -0.1402 -0.0186
    1OPC    C3B68468  25.761   5.988   4.555 -0.0523  0.4405  0.1829
    1OPC    C4B68469  25.672   6.017   4.092 -0.3382 -0.1551 -0.1480
    1OPC    NC368470  19.547   0.283   7.330  0.3607  0.1289  0.1366
    1OPC    PO468471  19.668   0.200   7.041  0.2267 -0.0500 -0.0514
    1OPC    GL168472  19.367   0.376   6.751  0.0674  0.2196 -0.0064
    1OPC    GL268473  19.062   0.266   6.614 -0.0186  0.0960  0.3632
    1OPC    C1B68474  18.739  -0.030   6.395  0.2771  0.1310 -0.2188
    1OPC    D2B68475  18.505  -0.208   6.080 -0.0698 -0.1757  0.0581
    1OPC    C3B68476  18.536   0.062   5.759 -0.0699  0.3482  0.0169
    1OPC    C4B68477  18.273   0.388   5.654  0.3901  0.1264 -0.1360
    1OPC    NC368478  22.696  20.426   6.771  0.0219 -0.0600 -0.0949
    1OPC    PO468479  22.218  20.600   6.900 -0.0667 -0.3671  0.1985
    1OPC    GL168480  22.208  20.340   6.651  0.0591 -0.0580 -0.0616
    1OPC    GL268481  22.321  20.239   6.425 -0.2141 -0.1998  0.1877
    1OPC    C1B68482  22.321  20.497   5.998  0.1816 -0.2052 -0.0824
    1OPC    D2B68483  22.416  20.548   5.604  0.0611 -0.1935 -0.0181
    1OPC    C3B68484  22.285  20.898   5.495  0.0135  0.1220  0.2718
    1OPC    C4B68485  22.194  21.212   5.609  0.0540 -0.0476 -0.0671
    1OPC    NC368486   3.006  19.258   6.164  0.2814 -0.1729  0.2776
    1OPC    PO468487   3.429  19.180   6.097 -0.2300 -0.3281  0.2953
    1OPC    GL168488   3.458  19.176   5.626 -0.1567  0.2275  0.1830
    1OPC    GL268489   3.443  19.091   5.333  0.1159  0.0641  0.2645
    1OPC    C1B68490   3.547  18.882   4.974 -0.0912 -0.0475  0.2868
    1OPC    D2B68491   3.384  18.693   4.695 -0.0129  0.1121  0.2900
    1OPC    C3B68492   3.064  18.819   4.420  0.1386  0.2938  0.4328
    1OPC    C4B68493   2.812  19.193   4.517 -0.0076  0.0690  0.2538
    1OPC    NC368494  29.184  25.660   7.249  0.0945  0.3033 -0.3860
    1OPC    PO468495  28.900  25.418   6.987 -0.0832 -0.3685 -0.1000
    1OPC    GL168496  29.081  25.621   6.576  0.2692  0.2131 -0.0285
    1OPC    GL268497  29.232  25.665   6.271  0.2686  0.3359 -0.0533
    1OPC    C1B68498  29.440  25.570   5.900  0.1286 -0.0715 -0.1738
    1OPC    D2B68499  29.497  25.264   5.573 -0.0284 -0.1826 -0.0230
    1OPC    C3B68500  29.199  25.514   5.316  0.0203 -0.0291  0.3576
    1OPC    C4B68501  29.283  25.840   5.063  0.0380  0.0025 -0.1795
    1OPC    NC368502   2.361   3.535   6.617  0.1236 -0.2546  0.0965
    1OPC    PO468503   2.759   3.492   6.465  0.0384  0.0254  0.0046
    1OPC    GL168504   2.562   3.107   6.242  0.3739  0.0153 -0.0530
    1OPC    GL268505   2.539   2.993   5.924 -0.5105 -0.1902 -0.1765
    1OPC    C1B68506   2.853   2.713   5.667  0.4384  0.0090 -0.1995
    1OPC    D2B68507   3.057   2.557   5.236 -0.0125 -0.0073  0.2479
    1OPC    C3B68508   3.276   2.919   5.166  0.0279 -0.1062  0.3942
    1OPC    C4B68509   3.170   3.225   4.922 -0.0963  0.0039 -0.0083
    1OPC    NC368510   0.095   8.277   6.673  0.3728 -0.0726 -0.1236
    1OPC    PO468511  -0.194   8.050   6.371  0.1359 -0.2520  0.1554
    1OPC    GL168512  -0.094   7.963   5.807 -0.0068  0.2142 -0.2179
    1OPC    GL268513  -0.004   8.048   5.415  0.1731 -0.0978  0.2194
    1OPC    C1B68514   0.159   7.946   5.044 -0.0685  0.1277 -0.2387
    1OPC    D2B68515   0.600   7.796   4.890 -0.0015  0.0381 -0.2566
    1OPC    C3B68516   0.862   8.052   4.694 -0.2534  0.1882  0.0379
    1OPC    C4B68517   1.019   8.282   4.440  0.2820 -0.2270 -0.2588
    1OPC    NC368518   1.344   6.048   6.052  0.0802  0.0526  0.1754
    1OPC    PO468519   0.992   6.254   5.992  0.0669 -0.3096  0.0523
    1OPC    GL168520   0.797   6.260   5.547  0.1631 -0.1764  0.2083
    1OPC    GL268521   0.495   6.403   5.369  0.1597  0.0054  0.0776
    1OPC    C1B68522   0.284   6.538   5.054  0.0701 -0.3041  0.2185
    1OPC    D2B68523   0.353   6.567   4.607 -0.1770 -0.0664 -0.1221
    1OPC    C3B68524   0.035   6.570   4.423 -0.1012 -0.3957 -0.0691
    1OPC    C4B68525   0.168   6.624   4.093 -0.3482 -0.2895 -0.2647
    1OPC    NC368526  20.396  26.599   7.142  0.1395 -0.4439  0.0037
    1OPC    PO468527  20.406  27.016   7.059  0.5563  0.1060  0.1278
    1OPC    GL168528  20.243  27.217   6.761 -0.1310 -0.1679 -0.0157
    1OPC    GL268529  20.346  27.202   6.400 -0.1702  0.1945  0.2838
    1OPC    C1B68530  20.130  27.475   6.147  0.1292  0.0981  0.0864
    1OPC    D2B68531  20.098  27.791   5.784  0.1171  0.2676  0.1464
    1OPC    C3B68532  19.900  27.768   5.407  0.1904 -0.1493 -0.1511
    1OPC    C4B68533  20.010  27.891   4.902  0.2255  0.0118 -0.0866
    1OPC    NC368534  24.235   7.034   5.984 -0.1023 -0.2081 -0.2474
    1OPC    PO468535  24.079   7.225   6.365 -0.2965  0.3438 -0.0022
    1OPC    GL168536  23.932   7.434   6.051  0.1865  0.1929 -0.1613
    1OPC    GL268537  24.005   7.477   5.672 -0.2442 -0.0435  0.0626
    1OPC    C1B68538  23.935   7.655   5.180  0.0447 -0.2001  0.1608
    1OPC    D2B68539  24.026   7.729   4.747  0.3208  0.4051 -0.5197
    1OPC    C3B68540  23.763   7.578   4.447 -0.0792 -0.2590  0.0963
    1OPC    C4B68541  23.390   7.688   4.396  0.6999  0.4266  0.1874
    1OPC    NC368542   9.240   2.917   7.298  0.1546 -0.4573 -0.0485
    1OPC    PO468543   8.858   2.742   7.096  0.2191 -0.0258  0.0133
    1OPC    GL168544   8.958   2.528   6.775  0.1068  0.2140  0.2421
    1OPC    GL268545   9.097   2.262   6.630 -0.0416  0.1573 -0.2999
    1OPC    C1B68546   9.131   2.113   6.200  0.2803  0.1048 -0.0830
    1OPC    D2B68547   8.807   2.004   6.126 -0.0388 -0.0501 -0.0365
    1OPC    C3B68548   8.747   1.911   5.571 -0.0786 -0.1482 -0.1338
    1OPC    C4B68549   8.612   1.946   5.121 -0.0027 -0.0920 -0.0761
    1OPC    NC368550  24.677  11.486   6.646  0.2660 -0.0331 -0.2530
    1OPC    PO468551  24.714  11.216   6.335  0.0064  0.2933 -0.0908
    1OPC    GL168552  24.871  11.083   5.943  0.1510  0.0727  0.2237
    1OPC    GL268553  25.116  11.056   5.637  0.0511 -0.0387  0.0936
    1OPC    C1B68554  25.218  11.107   5.249 -0.1910  0.1251  0.0249
    1OPC    D2B68555  25.256  11.041   4.747 -0.0323  0.0643  0.3199
    1OPC    C3B68556  25.090  11.327   4.513 -0.0993 -0.1383  0.1001
    1OPC    C4B68557  24.992  11.488   4.212 -0.0433  0.2204 -0.0024
    1OPC    NC368558   0.856  17.042   7.116  0.0876 -0.0771  0.1281
    1OPC    PO468559   0.583  16.891   6.828 -0.0910  0.1203  0.0092
    1OPC    GL168560   0.735  16.832   6.483 -0.0637  0.1657  0.1983
    1OPC    GL268561   0.838  17.000   6.203  0.0278  0.0711  0.0757
    1OPC    C1B68562   1.065  16.855   5.767  0.0549  0.2238 -0.1345
    1OPC    D2B68563   1.452  16.728   5.605  0.1718 -0.1012 -0.0625
    1OPC    C3B68564   1.611  16.710   5.222  0.0234 -0.1179  0.4501
    1OPC    C4B68565   1.711  16.451   4.867  0.1273 -0.0662 -0.0487
    1OPC    NC368566  23.859   3.500   6.508 -0.0967  0.0180 -0.0946
    1OPC    PO468567  24.068   3.300   6.060  0.0717  0.3067 -0.0007
    1OPC    GL168568  23.680   3.107   5.815 -0.0859  0.3089 -0.0641
    1OPC    GL268569  23.433   3.273   5.466 -0.0938  0.0090  0.0538
    1OPC    C1B68570  23.071   3.146   5.177 -0.1431  0.3008 -0.1204
    1OPC    D2B68571  22.767   3.009   5.115 -0.0583  0.1259  0.0275
    1OPC    C3B68572  22.498   3.264   4.910  0.1885  0.1685 -0.0827
    1OPC    C4B68573  22.473   3.109   4.470 -0.4386 -0.0668  0.0815
    1OPC    NC368574  13.408   3.169   7.259 -0.4330  0.0254  0.0950
    1OPC    PO468575  13.016   3.104   7.195  0.0327  0.1631 -0.1249
    1OPC    GL168576  12.707   3.002   6.985 -0.3839 -0.2824 -0.0980
    1OPC    GL268577  12.644   2.750   6.773 -0.1237  0.0776  0.1520
    1OPC    C1B68578  12.608   2.751   6.363  0.3402  0.1790  0.1341
    1OPC    D2B68579  12.410   2.979   6.036  0.2053 -0.1096  0.0773
    1OPC    C3B68580  12.154   3.174   5.677  0.1675 -0.0346  0.1254
    1OPC    C4B68581  11.883   3.278   5.318  0.0390  0.2289  0.4182
    1OPC    NC368582  28.782  22.641   6.582  0.1230  0.1431 -0.2745
    1OPC    PO468583  29.247  22.862   6.454 -0.0633  0.2953 -0.2184
    1OPC    GL168584  29.105  23.008   6.112 -0.1986  0.3959 -0.0219
    1OPC    GL268585  28.891  23.185   5.868 -0.1962  0.0966  0.1016
    1OPC    C1B68586  28.616  23.352   5.540 -0.1531 -0.0216  0.1163
    1OPC    D2B68587  28.856  23.268   5.116 -0.0655  0.4230  0.1119
    1OPC    C3B68588  28.722  23.192   4.673  0.0350  0.0592  0.1727
    1OPC    C4B68589  28.685  22.820   4.415  0.2762 -0.2226  0.0076
    1OPC    NC368590  25.364  11.347   6.048  0.1197  0.0175 -0.1817
    1OPC    PO468591  25.788  11.276   5.848 -0.2137 -0.2799 -0.0866
    1OPC    GL168592  25.433  11.411   5.571 -0.1462  0.1044 -0.1089
    1OPC    GL268593  25.363  11.625   5.430  0.4035  0.3296  0.1189
    1OPC    C1B68594  25.413  11.552   5.036  0.2555 -0.0453  0.1055
    1OPC    D2B68595  25.620  11.588   4.681 -0.0848 -0.3940  0.3653
    1OPC    C3B68596  25.499  11.524   4.214  0.0255 -0.0078  0.1096
    1OPC    C4B68597  25.223  11.819   3.904  0.1311  0.4391 -0.0232
    1OPC    NC368598   1.956  20.133   5.643 -0.2683 -0.1159 -0.2803
    1OPC    PO468599   2.279  20.422   5.903  0.0544  0.0093 -0.1690
    1OPC    GL168600   2.389  20.342   5.487  0.0798 -0.2447 -0.2773
    1OPC    GL268601   2.178  20.372   5.274 -0.1068  0.0088  0.2274
    1OPC    C1B68602   2.269  20.470   4.812 -0.0174 -0.0307  0.0804
    1OPC    D2B68603   2.051  20.397   4.373  0.1223  0.0142  0.0023
    1OPC    C3B68604   2.329  20.518   4.083  0.2807 -0.1125 -0.1741
    1OPC    C4B68605   2.688  20.545   4.043 -0.1349 -0.3029  0.2947
    1OPC    NC368606   2.836  19.829   7.316  0.0536 -0.2302  0.0147
    1OPC    PO468607   3.025  19.648   6.973 -0.0145  0.0013 -0.2208
    1OPC    GL168608   3.149  19.558   6.535 -0.2789  0.0046  0.1374
    1OPC    GL268609   3.251  19.736   6.182  0.1779 -0.1605 -0.0508
    1OPC    C1B68610   3.447  19.833   5.834 -0.2003 -0.1632 -0.0049
    1OPC    D2B68611   3.295  19.788   5.423 -0.2858  0.1683 -0.2579
    1OPC    C3B68612   3.525  19.524   5.125  0.1514 -0.2602  0.1470
    1OPC    C4B68613   3.892  19.784   5.071  0.0899 -0.0266  0.3000
    1OPC    NC368614   1.247  16.190   6.700  0.3227 -0.1666 -0.0196
    1OPC    PO468615   0.745  16.155   6.493 -0.3144 -0.3645  0.0178
    1OPC    GL168616   0.808  16.158   6.044 -0.0409  0.0965 -0.0956
    1OPC    GL268617   0.761  16.037   5.736  0.0500  0.1362 -0.0946
    1OPC    C1B68618   0.547  16.099   5.442  0.1988 -0.0626  0.1015
    1OPC    D2B68619   0.592  16.546   5.136  0.1252 -0.1975  0.0328
    1OPC    C3B68620   0.265  16.469   4.908 -0.2615  0.2458 -0.1253
    1OPC    C4B68621  -0.138  16.457   4.907  0.0099  0.2102 -0.1139
    1OPC    NC368622   0.387  28.151   6.678  0.0500 -0.2737  0.2767
    1OPC    PO468623   0.701  28.223   6.501  0.1390 -0.1066 -0.0645
    1OPC    GL168624   0.919  28.127   6.092  0.1112 -0.0480  0.1614
    1OPC    GL268625   1.052  27.862   5.995 -0.1776 -0.1758 -0.3700
    1OPC    C1B68626   1.000  27.446   5.735  0.0320 -0.0666 -0.1909
    1OPC    D2B68627   0.548  27.277   5.665  0.0700 -0.0192 -0.3665
    1OPC    C3B68628   0.406  26.860   5.697 -0.1451  0.1474 -0.1905
    1OPC    C4B68629   0.346  26.440   5.736  0.0500  0.1350 -0.2554
    1OPC    NC368630  13.732   5.425   7.384  0.1746 -0.0773 -0.4819
    1OPC    PO468631  13.762   5.770   7.624 -0.1063 -0.0192  0.2070
    1OPC    GL168632  14.053   5.769   7.289  0.1788 -0.2122 -0.2723
    1OPC    GL268633  14.212   5.574   7.026  0.3451  0.1901 -0.4483
    1OPC    C1B68634  14.399   5.455   6.645  0.1830 -0.0346  0.1388
    1OPC    D2B68635  14.249   5.456   6.221 -0.0058  0.0886  0.0367
    1OPC    C3B68636  14.498   5.193   6.020 -0.1096  0.1340  0.0837
    1OPC    C4B68637  14.669   5.141   5.638 -0.3066  0.0331  0.2128
    1OPC    NC368638  25.971  12.937   6.400 -0.0422 -0.2389 -0.0715
    1OPC    PO468639  26.024  13.018   5.916 -0.1074  0.2248  0.1412
    1OPC    GL168640  26.062  12.746   5.557 -0.0832  0.1877  0.1677
    1OPC    GL268641  25.933  12.744   5.226  0.1062  0.1690 -0.0948
    1OPC    C1B68642  25.844  13.101   4.947 -0.0357 -0.0620  0.0447
    1OPC    D2B68643  25.477  13.318   4.809  0.1467 -0.1291  0.1098
    1OPC    C3B68644  25.319  13.201   4.433  0.0685 -0.2161 -0.3082
    1OPC    C4B68645  25.392  13.036   4.038  0.0815  0.1616  0.1494
    1OPC    NC368646  14.879  27.907   7.657 -0.0147  0.0810 -0.1763
    1OPC    PO468647  14.784  28.335   7.501 -0.3078  0.2233 -0.0523
    1OPC    GL168648  14.950  28.126   7.209 -0.2426  0.2282 -0.0656
    1OPC    GL268649  15.070  28.282   6.889 -0.1752  0.0164 -0.1647
    1OPC    C1B68650  14.974  28.672   6.593 -0.1900  0.0515  0.0995
    1OPC    D2B68651  14.801  29.013   6.281 -0.0029 -0.1565  0.0482
    1OPC    C3B68652  14.692  28.739   5.936 -0.1338 -0.0125  0.0959
    1OPC    C4B68653  14.905  28.544   5.625  0.4266 -0.1215 -0.1346
    1OPC    NC368654   4.216  10.014   6.557 -0.3587  0.2522  0.3132
    1OPC    PO468655   4.716   9.935   6.490  0.1000 -0.1718  0.1023
    1OPC    GL168656   4.856   9.809   6.022 -0.1342  0.3189  0.3043
    1OPC    GL268657   4.812   9.811   5.666 -0.2317  0.2420  0.1218
    1OPC    C1B68658   4.959   9.930   5.258  0.2234  0.0130  0.0796
    1OPC    D2B68659   4.896  10.143   4.858 -0.0710 -0.0829 -0.0139
    1OPC    C3B68660   4.546  10.164   4.842 -0.0258 -0.0442 -0.0080
    1OPC    C4B68661   4.131  10.192   5.116  0.1123 -0.2388 -0.0633
    1OPC    NC368662   8.756  27.925   7.523 -0.1269 -0.0427 -0.1491
    1OPC    PO468663   9.141  27.667   7.691  0.1474 -0.2460 -0.0015
    1OPC    GL168664   9.185  27.723   7.250 -0.0290 -0.2199  0.1945
    1OPC    GL268665   9.044  27.856   6.975  0.1395 -0.1260 -0.0975
    1OPC    C1B68666   8.927  27.865   6.603 -0.3280 -0.1492  0.0079
    1OPC    D2B68667   9.067  27.864   6.208  0.1650 -0.1142  0.1988
    1OPC    C3B68668   9.492  27.862   6.285  0.1566 -0.2212 -0.2087
    1OPC    C4B68669   9.914  27.784   6.080  0.1665 -0.0169 -0.1804
    1OPC    NC368670  15.008   6.975   8.126 -0.0317  0.1660  0.0844
    1OPC    PO468671  15.277   6.653   7.960 -0.2618 -0.0278  0.3555
    1OPC    GL168672  15.223   6.428   7.497  0.0445  0.1906 -0.1235
    1OPC    GL268673  15.434   6.343   7.189 -0.1971  0.1037 -0.0367
    1OPC    C1B68674  15.318   6.067   6.784 -0.1901  0.2129  0.2176
    1OPC    D2B68675  15.381   6.182   6.264 -0.2912  0.0156  0.2039
    1OPC    C3B68676  15.135   6.461   6.037  0.0541  0.0902 -0.1974
    1OPC    C4B68677  14.985   6.381   5.572  0.0252  0.0113 -0.0531
    1OPC    NC368678  10.526   3.235   7.323 -0.3270 -0.1347  0.2762
    1OPC    PO468679  10.609   3.625   7.223  0.1594  0.2307 -0.2210
    1OPC    GL168680  10.437   3.469   6.863 -0.0824 -0.0359 -0.0695
    1OPC    GL268681  10.462   3.209   6.818  0.1542 -0.0806 -0.0903
    1OPC    C1B68682  10.403   2.791   6.753 -0.0167 -0.0260 -0.2629
    1OPC    D2B68683  10.389   2.605   6.350  0.0276  0.1882  0.0305
    1OPC    C3B68684  10.762   2.705   6.063 -0.1385 -0.2005 -0.0958
    1OPC    C4B68685  10.845   2.489   5.666 -0.1672  0.2392  0.1167
    1OPC    NC368686   5.859  25.422   7.172 -0.0664  0.1504  0.1675
    1OPC    PO468687   5.465  25.296   6.944 -0.1304 -0.1010 -0.1014
    1OPC    GL168688   5.442  25.255   6.438  0.0409 -0.3828 -0.1370
    1OPC    GL268689   5.382  25.306   6.035 -0.2000  0.0836 -0.0667
    1OPC    C1B68690   5.486  25.295   5.589 -0.1275  0.2792 -0.0119
    1OPC    D2B68691   5.539  25.291   5.229  0.0099 -0.0553  0.0840
    1OPC    C3B68692   5.564  24.996   4.772  0.0955 -0.0363  0.2231
    1OPC    C4B68693   5.566  24.981   4.354 -0.1804 -0.0511 -0.0274
    1OPC    NC368694   0.935  13.159   6.458  0.0407 -0.0189  0.0509
    1OPC    PO468695   0.716  13.577   6.168  0.1753 -0.3802  0.1261
    1OPC    GL168696   0.840  13.724   5.731  0.2475 -0.0154  0.1495
    1OPC    GL268697   0.952  13.676   5.507 -0.0906  0.0552  0.1367
    1OPC    C1B68698   1.059  13.801   5.075 -0.1199 -0.2495 -0.3868
    1OPC    D2B68699   1.162  13.808   4.612 -0.3831  0.0786 -0.2195
    1OPC    C3B68700   1.571  13.586   4.571  0.0579  0.4687 -0.0027
    1OPC    C4B68701   1.918  13.317   4.677 -0.0505 -0.1233 -0.1061
    1OPC    NC368702  11.833   7.565   7.577 -0.0031  0.2599  0.2255
    1OPC    PO468703  12.168   7.849   7.423  0.2723 -0.2246 -0.0429
    1OPC    GL168704  12.098   7.900   7.023  0.0545  0.1255 -0.1067
    1OPC    GL268705  12.053   8.141   6.708  0.2095 -0.0736  0.0723
    1OPC    C1B68706  12.286   8.288   6.393  0.1308  0.0606 -0.1870
    1OPC    D2B68707  12.403   8.154   5.951  0.1009  0.1233  0.0776
    1OPC    C3B68708  12.858   8.161   5.859 -0.0446 -0.0723 -0.0216
    1OPC    C4B68709  13.244   8.032   5.668 -0.1821  0.0979 -0.2980
    1OPC    NC368710  10.632  22.699   6.788 -0.2673 -0.0486  0.1944
    1OPC    PO468711  10.722  22.313   6.601 -0.1860  0.1277  0.0257
    1OPC    GL168712  10.709  22.295   6.117 -0.0157 -0.1342  0.2253
    1OPC    GL268713  10.661  22.556   5.839  0.0725  0.1257 -0.2062
    1OPC    C1B68714  10.821  22.706   5.506  0.1606 -0.0976  0.2807
    1OPC    D2B68715  10.854  22.752   5.039  0.1253  0.1875  0.4560
    1OPC    C3B68716  10.687  22.352   4.811  0.0547 -0.2084 -0.1123
    1OPC    C4B68717  10.653  21.986   4.788 -0.0675  0.2021  0.1240
    1OPC    NC368718  23.080  24.191   6.760  0.2683 -0.0091  0.1765
    1OPC    PO468719  23.040  24.052   7.112  0.0597 -0.0932  0.1241
    1OPC    GL168720  23.251  23.752   6.851  0.2507 -0.0283 -0.1761
    1OPC    GL268721  23.207  23.752   6.472 -0.1208  0.1330  0.0006
    1OPC    C1B68722  23.339  23.854   6.087  0.0351 -0.0246  0.0839
    1OPC    D2B68723  23.411  24.102   5.716 -0.1304  0.1838  0.0731
    1OPC    C3B68724  23.510  24.541   5.650  0.1039 -0.1872  0.1956
    1OPC    C4B68725  23.671  24.772   5.223  0.2189 -0.3312 -0.0412
    1OPC    NC368726  14.586   3.951   7.433  0.0309  0.2377 -0.0185
    1OPC    PO468727  14.413   4.227   7.311  0.1758 -0.2547 -0.1154
    1OPC    GL168728  14.191   4.114   7.036  0.0487  0.0987  0.2313
    1OPC    GL268729  14.112   4.012   6.775 -0.2346 -0.2657  0.0292
    1OPC    C1B68730  14.198   3.818   6.334  0.3474 -0.2726  0.1585
    1OPC    D2B68731  14.576   3.602   6.310 -0.2115 -0.2270  0.0475
    1OPC    C3B68732  14.621   3.324   5.896  0.0335 -0.3689 -0.3148
    1OPC    C4B68733  14.771   3.036   5.624  0.2261 -0.1796 -0.1283
    1OPC    NC368734  22.828  19.744   7.092  0.0628 -0.1410 -0.1045
    1OPC    PO468735  23.008  20.016   6.869  0.1187 -0.2251  0.0259
    1OPC    GL168736  22.751  20.013   6.509  0.0456  0.2858 -0.1180
    1OPC    GL268737  22.564  19.896   6.238  0.1719  0.0629 -0.0690
    1OPC    C1B68738  22.491  19.703   5.804  0.0952 -0.2443  0.0464
    1OPC    D2B68739  22.574  19.762   5.429  0.3927  0.1213 -0.0990
    1OPC    C3B68740  22.497  19.455   5.093  0.1743  0.0324  0.3397
    1OPC    C4B68741  22.354  19.237   4.630  0.1761  0.0080 -0.2687
    1OPC    NC368742  25.890   4.749   6.194 -0.1446 -0.0690 -0.2740
    1OPC    PO468743  25.687   5.133   6.421 -0.3013 -0.1820  0.0948
    1OPC    GL168744  25.849   5.139   5.967  0.3255 -0.2062 -0.0910
    1OPC    GL268745  25.806   5.336   5.677  0.0485  0.1109 -0.4202
    1OPC    C1B68746  25.617   5.461   5.316  0.0526 -0.0449  0.1266
    1OPC    D2B68747  25.244   5.280   5.221  0.0823  0.1191  0.3840
    1OPC    C3B68748  25.034   4.925   5.147  0.0963 -0.1149  0.1978
    1OPC    C4B68749  24.864   4.846   4.780 -0.4672 -0.1293 -0.2530
    1OPC    NC368750   7.477   9.538   6.817  0.2201  0.1967  0.3925
    1OPC    PO468751   7.164   9.621   6.512  0.0643  0.3829 -0.0400
    1OPC    GL168752   7.461   9.428   6.132  0.2893 -0.1699 -0.2130
    1OPC    GL268753   7.768   9.207   5.964  0.0275  0.0166 -0.2200
    1OPC    C1B68754   7.979   9.319   5.720  0.2720 -0.1408  0.0184
    1OPC    D2B68755   8.101   9.672   5.520 -0.1064 -0.0334 -0.1038
    1OPC    C3B68756   7.727   9.722   5.200  0.0168  0.1336  0.1085
    1OPC    C4B68757   7.302   9.940   5.039 -0.1432 -0.0699  0.2303
    1OPC    NC368758   3.297  11.704   6.492  0.0842  0.0326  0.2447
    1OPC    PO468759   3.666  11.896   6.630 -0.1424  0.3145  0.3872
    1OPC    GL168760   3.736  12.035   6.298  0.0722  0.0503 -0.2074
    1OPC    GL268761   3.642  12.151   6.062  0.1803 -0.0244  0.1283
    1OPC    C1B68762   3.692  12.103   5.625  0.0819  0.1502  0.2600
    1OPC    D2B68763   3.997  12.283   5.401 -0.1195 -0.0676  0.1629
    1OPC    C3B68764   3.873  12.379   5.011 -0.2143  0.0510  0.0785
    1OPC    C4B68765   3.847  12.566   4.579  0.0550 -0.1145 -0.1379
    1OPC    NC368766   9.897   9.213   7.159 -0.1302 -0.0057  0.2865
    1OPC    PO468767   9.593   9.490   7.271  0.0126  0.0924 -0.1013
    1OPC    GL168768   9.586   9.451   6.858  0.0519  0.2397  0.3758
    1OPC    GL268769   9.743   9.220   6.597 -0.2229  0.0412  0.1478
    1OPC    C1B68770   9.599   9.278   6.196  0.5330  0.1091 -0.1082
    1OPC    D2B68771   9.616   9.325   5.709  0.2114  0.0558  0.0564
    1OPC    C3B68772   9.811   9.718   5.639 -0.0466  0.1746  0.3363
    1OPC    C4B68773   9.514  10.044   5.520 -0.2745 -0.0843 -0.1392
    1OPC    NC368774  22.244  20.195   7.482  0.2284 -0.3240 -0.1919
    1OPC    PO468775  22.506  20.154   7.169 -0.0952  0.1945 -0.1061
    1OPC    GL168776  22.364  19.900   6.797  0.1638  0.4467 -0.5427
    1OPC    GL268777  22.179  19.759   6.596  0.2419  0.1652 -0.1332
    1OPC    C1B68778  21.969  19.465   6.418  0.2360 -0.1291  0.0276
    1OPC    D2B68779  21.941  19.250   6.007  0.4281  0.1380 -0.1767
    1OPC    C3B68780  21.802  18.910   5.998  0.0966 -0.0070  0.2644
    1OPC    C4B68781  21.956  18.589   5.870 -0.0162 -0.0922 -0.0956
    1OPC    NC368782  11.333   8.552   7.730  0.0408  0.1189  0.0214
    1OPC    PO468783  11.510   8.380   7.346  0.2315 -0.2072 -0.1335
    1OPC    GL168784  11.366   8.615   6.865  0.2305 -0.1296 -0.2586
    1OPC    GL268785  11.280   8.601   6.562  0.0652 -0.2232  0.0338
    1OPC    C1B68786  11.436   8.644   6.053  0.2302 -0.1124 -0.1127
    1OPC    D2B68787  11.808   8.719   5.800  0.3304  0.3480  0.0838
    1OPC    C3B68788  12.005   9.049   5.573 -0.1013  0.3686 -0.0187
    1OPC    C4B68789  11.843   9.470   5.370  0.1743 -0.0470 -0.2799
    1OPC    NC368790  25.477  10.430   6.174  0.0381  0.1681  0.0793
    1OPC    PO468791  25.378  10.859   5.965 -0.0160 -0.0330  0.0478
    1OPC    GL168792  25.600  10.899   5.683  0.3384  0.2525  0.0234
    1OPC    GL268793  25.766  11.061   5.423  0.0781 -0.0456 -0.4061
    1OPC    C1B68794  25.720  11.156   4.978  0.1975 -0.0610  0.2788
    1OPC    D2B68795  25.914  11.175   4.564  0.0671 -0.0667 -0.2460
    1OPC    C3B68796  26.089  11.518   4.333  0.0232  0.0126  0.1812
    1OPC    C4B68797  26.358  11.856   4.300  0.0583  0.0684  0.0023
    1OPC    NC368798   7.672  27.819   7.170 -0.1029 -0.3079 -0.0501
    1OPC    PO468799   7.738  28.096   6.937  0.2332 -0.2785 -0.0015
    1OPC    GL168800   8.074  28.268   6.768  0.1560 -0.1232 -0.3113
    1OPC    GL268801   8.071  28.341   6.472 -0.1476  0.0781 -0.2025
    1OPC    C1B68802   8.260  28.334   6.076  0.1554 -0.2051  0.1667
    1OPC    D2B68803   8.413  28.358   5.683  0.3453  0.2475 -0.2792
    1OPC    C3B68804   8.735  28.515   5.407  0.0994  0.0019  0.0839
    1OPC    C4B68805   9.120  28.612   5.344  0.0122 -0.1548  0.0363
    1OPC    NC368806  24.576  27.565   7.063  0.1959  0.2232  0.1101
    1OPC    PO468807  24.617  27.215   6.748  0.2634  0.2092 -0.0354
    1OPC    GL168808  24.546  27.057   6.297  0.1563 -0.2615  0.1361
    1OPC    GL268809  24.653  27.160   5.910  0.3042  0.3154 -0.2025
    1OPC    C1B68810  24.895  27.001   5.516 -0.2233 -0.1190 -0.0866
    1OPC    D2B68811  25.111  26.642   5.307  0.2976 -0.0118 -0.3033
    1OPC    C3B68812  25.227  26.487   4.975 -0.2712 -0.2062  0.2158
    1OPC    C4B68813  25.388  26.079   4.928 -0.2347 -0.1532  0.1328
    1OPC    NC368814  21.685   6.533   7.087 -0.3533  0.2039 -0.0183
    1OPC    PO468815  21.245   6.654   7.103 -0.2959  0.0749 -0.0126
    1OPC    GL168816  21.493   6.845   6.703  0.2736  0.1348 -0.2323
    1OPC    GL268817  21.718   6.797   6.387  0.0227  0.1541  0.0877
    1OPC    C1B68818  21.551   6.809   5.958  0.1745  0.1344  0.1009
    1OPC    D2B68819  21.319   6.766   5.559 -0.0730 -0.1585  0.0822
    1OPC    C3B68820  21.258   6.676   5.180 -0.0966 -0.2208  0.0819
    1OPC    C4B68821  21.132   6.441   4.807 -0.3464 -0.1283  0.0630
    1OPC    NC368822  10.683  21.034   6.301 -0.1154  0.1425 -0.1567
    1OPC    PO468823  10.166  21.184   6.257  0.1450 -0.0418  0.1956
    1OPC    GL168824  10.152  21.393   5.832  0.0718  0.2296  0.2204
    1OPC    GL268825  10.166  21.467   5.527  0.2008  0.4312 -0.2157
    1OPC    C1B68826  10.121  21.265   5.089  0.2270  0.0053 -0.2182
    1OPC    D2B68827   9.923  21.046   4.716 -0.0266  0.2061 -0.1285
    1OPC    C3B68828   9.831  20.577   4.677 -0.0097 -0.1787 -0.1959
    1OPC    C4B68829   9.907  20.203   4.571 -0.4422 -0.1896 -0.0904
    1OPC    NC368830  16.677  24.320   7.396 -0.0362 -0.2618  0.2840
    1OPC    PO468831  16.833  24.513   7.069 -0.0034 -0.0170  0.3864
    1OPC    GL168832  16.974  24.889   6.834 -0.0410 -0.3281  0.1782
    1OPC    GL268833  16.924  25.146   6.694  0.2355 -0.2055  0.1736
    1OPC    C1B68834  16.682  25.247   6.384  0.0375  0.0425 -0.0910
    1OPC    D2B68835  16.213  25.171   6.372  0.0775  0.0287  0.1276
    1OPC    C3B68836  15.966  25.018   6.014  0.1892  0.1266 -0.2543
    1OPC    C4B68837  16.067  24.725   5.731 -0.2547 -0.2766 -0.0501
    1OPC    NC368838  25.145  13.053   6.029 -0.2327 -0.1511 -0.2257
    1OPC    PO468839  25.153  12.644   6.214  0.1847 -0.2358 -0.0492
    1OPC    GL168840  25.189  12.573   5.692 -0.0484 -0.1276 -0.1712
    1OPC    GL268841  25.353  12.722   5.363 -0.1945  0.1713  0.0042
    1OPC    C1B68842  25.384  12.741   4.939 -0.4266  0.0115  0.0461
    1OPC    D2B68843  25.599  12.817   4.480 -0.1278  0.2824 -0.2365
    1OPC    C3B68844  25.750  12.474   4.288 -0.0225  0.1703 -0.0902
    1OPC    C4B68845  26.000  12.172   4.086 -0.1387 -0.0876  0.0119
    1OPC    NC368846  22.227  13.802   6.189  0.2497  0.0156  0.0876
    1OPC    PO468847  21.918  13.828   6.485  0.1788 -0.1069 -0.5324
    1OPC    GL168848  21.657  13.880   6.201 -0.0774  0.1882  0.1429
    1OPC    GL268849  21.463  13.783   5.863 -0.0264  0.1673 -0.0942
    1OPC    C1B68850  21.449  13.702   5.432  0.1576 -0.1305 -0.0080
    1OPC    D2B68851  21.456  13.809   5.134  0.0490  0.0263 -0.0784
    1OPC    C3B68852  21.780  13.542   4.850  0.0181  0.0748  0.1386
    1OPC    C4B68853  22.264  13.503   4.812 -0.0078 -0.0315  0.0202
    1OPC    NC368854   5.597  17.890   5.848 -0.2111  0.2887 -0.3322
    1OPC    PO468855   5.108  17.799   5.819 -0.0374 -0.0737  0.3762
    1OPC    GL168856   5.268  18.026   5.366 -0.2851 -0.0470  0.0068
    1OPC    GL268857   5.137  18.265   5.172 -0.0164  0.0149  0.1040
    1OPC    C1B68858   5.044  18.678   4.843  0.0163  0.1088  0.3082
    1OPC    D2B68859   4.996  18.777   4.379 -0.0608  0.2901 -0.0478
    1OPC    C3B68860   5.464  18.799   4.157  0.2064 -0.2597  0.0368
    1OPC    C4B68861   5.776  19.051   4.152  0.1490 -0.1034 -0.4134
    1OPC    NC368862  21.955  23.117   6.820  0.0539  0.0707 -0.2064
    1OPC    PO468863  21.748  22.638   6.980 -0.0902  0.2318 -0.0417
    1OPC    GL168864  21.764  22.372   6.566 -0.1874 -0.0168  0.1753
    1OPC    GL268865  21.577  22.328   6.290  0.0324 -0.0861 -0.2526
    1OPC    C1B68866  21.292  22.331   5.912 -0.0923  0.0053  0.3340
    1OPC    D2B68867  21.108  22.392   5.526 -0.0453  0.0353 -0.2581
    1OPC    C3B68868  20.698  22.265   5.363 -0.1413  0.1144  0.0644
    1OPC    C4B68869  20.362  21.984   5.326 -0.0069  0.2115 -0.1557
    1OPC    NC368870   9.891   9.585   7.827  0.0541  0.1298  0.2086
    1OPC    PO468871  10.293   9.689   7.488 -0.3305 -0.3879  0.1209
    1OPC    GL168872  10.268   9.541   7.060  0.1105 -0.1986  0.0450
    1OPC    GL268873   9.979   9.689   6.930  0.0609 -0.2188 -0.0800
    1OPC    C1B68874   9.729   9.927   6.668  0.2505 -0.1808 -0.1060
    1OPC    D2B68875   9.662  10.012   6.207 -0.0819  0.2837  0.0995
    1OPC    C3B68876   9.864   9.678   6.178 -0.1773  0.0764 -0.0857
    1OPC    C4B68877  10.178   9.608   6.490 -0.2230 -0.0369 -0.2350
    1OPC    NC368878  25.999  24.303   7.012 -0.0267 -0.2567  0.1714
    1OPC    PO468879  26.179  24.304   6.597  0.2594  0.3202  0.2810
    1OPC    GL168880  26.058  24.533   6.238 -0.0662  0.2157 -0.3004
    1OPC    GL268881  26.125  24.824   5.963  0.0663  0.1364 -0.0717
    1OPC    C1B68882  25.814  24.852   5.687 -0.0022 -0.0024  0.2247
    1OPC    D2B68883  25.499  24.745   5.326  0.2904 -0.1378  0.1828
    1OPC    C3B68884  25.417  24.944   4.952  0.1623  0.0726  0.0245
    1OPC    C4B68885  25.221  24.906   4.625 -0.1135  0.0925  0.1336
    1OPC    NC368886   6.753  12.057   6.946 -0.1488  0.2406 -0.0696
    1OPC    PO468887   6.766  12.500   6.891  0.0121  0.1310  0.2429
    1OPC    GL168888   6.750  12.562   6.440  0.1870 -0.0335 -0.0569
    1OPC    GL268889   6.787  12.756   6.183 -0.0201  0.0326  0.0330
    1OPC    C1B68890   6.897  12.749   5.685 -0.1664 -0.0101  0.2220
    1OPC    D2B68891   6.867  12.942   5.342 -0.3092 -0.0789 -0.0041
    1OPC    C3B68892   7.186  13.180   5.251  0.1158  0.3773  0.3390
    1OPC    C4B68893   7.331  13.232   4.973  0.1253 -0.2447  0.2255
    1OPC    NC368894  25.041   4.572   6.147  0.0988 -0.0736  0.0259
    1OPC    PO468895  25.386   4.905   6.131  0.1965 -0.0158 -0.0484
    1OPC    GL168896  25.353   4.977   5.734 -0.2425 -0.2690  0.0464
    1OPC    GL268897  25.636   4.908   5.504  0.1022 -0.2686 -0.1299
    1OPC    C1B68898  25.604   4.955   5.092  0.0459  0.0739  0.1016
    1OPC    D2B68899  25.295   5.001   4.718  0.0975 -0.0704  0.0704
    1OPC    C3B68900  25.433   5.219   4.408 -0.0844  0.3826  0.0994
    1OPC    C4B68901  25.626   5.528   4.321 -0.1309  0.0880  0.1543
    1OPC    NC368902  26.262   3.493   6.941 -0.1566 -0.1137 -0.0291
    1OPC    PO468903  26.212   3.432   6.419 -0.1072 -0.0654  0.2023
    1OPC    GL168904  26.470   3.422   5.972  0.1202  0.0507 -0.2782
    1OPC    GL268905  26.632   3.223   5.813  0.0264  0.2937  0.2662
    1OPC    C1B68906  26.768   3.085   5.438 -0.0316 -0.2115 -0.1168
    1OPC    D2B68907  27.094   2.898   5.077  0.0808 -0.0785 -0.0505
    1OPC    C3B68908  27.228   3.251   4.742  0.1016  0.1324  0.1888
    1OPC    C4B68909  27.191   3.747   4.722  0.0621  0.3663  0.4530
    1OPC    NC368910   8.899   7.450   7.083 -0.2913  0.0391 -0.1521
    1OPC    PO468911   8.766   7.532   6.640  0.1555  0.0227 -0.0971
    1OPC    GL168912   8.584   7.997   6.522 -0.2853  0.3302 -0.0577
    1OPC    GL268913   8.507   7.861   6.147 -0.0627  0.1632 -0.4798
    1OPC    C1B68914   8.421   7.681   5.707  0.1780 -0.0801  0.4541
    1OPC    D2B68915   8.342   7.554   5.282 -0.1072 -0.0847 -0.1646
    1OPC    C3B68916   8.166   7.733   4.974  0.3177 -0.0383 -0.0257
    1OPC    C4B68917   7.811   7.888   4.984  0.1640 -0.0231 -0.2117
    1OPC    NC368918   8.021   4.572   7.876  0.1373 -0.4031 -0.1396
    1OPC    PO468919   7.936   4.463   7.466  0.2253 -0.2083 -0.0093
    1OPC    GL168920   7.977   4.788   7.197  0.1497 -0.0377 -0.0213
    1OPC    GL268921   8.110   4.903   6.881 -0.0505  0.0762  0.1014
    1OPC    C1B68922   8.147   4.846   6.458  0.3013 -0.0428  0.0762
    1OPC    D2B68923   8.054   4.833   6.067  0.2068 -0.0302 -0.4486
    1OPC    C3B68924   7.990   4.788   5.573  0.2789  0.1267 -0.4331
    1OPC    C4B68925   7.850   4.829   5.222 -0.2961 -0.0806  0.1499
    1OPC    NC368926  27.381  25.480   6.713 -0.0787 -0.0286 -0.2565
    1OPC    PO468927  26.922  25.532   6.508  0.0718  0.2773 -0.0617
    1OPC    GL168928  26.840  25.782   6.270 -0.2546 -0.1236  0.2183
    1OPC    GL268929  26.929  25.902   6.030 -0.0096 -0.0640 -0.1198
    1OPC    C1B68930  26.910  25.915   5.551  0.3193  0.1097  0.0445
    1OPC    D2B68931  26.937  26.171   5.203 -0.0148 -0.1077  0.0496
    1OPC    C3B68932  26.841  26.119   4.777  0.0500  0.3355 -0.0803
    1OPC    C4B68933  26.718  26.325   4.403  0.0771 -0.0915 -0.2653
    1OPC    NC368934  23.549  10.434   6.346  0.2266  0.0695 -0.0138
    1OPC    PO468935  24.012  10.672   6.473  0.0562  0.1023 -0.2354
    1OPC    GL168936  24.048  10.611   6.001  0.1201  0.0111 -0.1067
    1OPC    GL268937  23.970  10.670   5.745 -0.0157  0.0885  0.0514
    1OPC    C1B68938  23.923  10.613   5.253 -0.1269  0.0072  0.1852
    1OPC    D2B68939  23.915  10.527   4.912  0.0711 -0.3113 -0.3133
    1OPC    C3B68940  23.553  10.441   4.838 -0.2432 -0.1324 -0.0707
    1OPC    C4B68941  23.136  10.613   5.013 -0.1777 -0.1412  0.0441
    1OPC    NC368942  21.455  25.537   7.145  0.1264  0.2196  0.0126
    1OPC    PO468943  21.084  25.635   6.814  0.1653  0.0658 -0.1087
    1OPC    GL168944  20.960  25.815   6.380  0.1592  0.2631  0.0371
    1OPC    GL268945  21.066  26.097   6.210  0.0061 -0.2515 -0.0876
    1OPC    C1B68946  21.223  26.283   5.832  0.0241 -0.2269  0.1223
    1OPC    D2B68947  21.487  26.321   5.458 -0.1777  0.0843  0.2123
    1OPC    C3B68948  21.623  26.774   5.337 -0.0864 -0.2768 -0.0237
    1OPC    C4B68949  21.820  26.991   5.665 -0.2752 -0.2427  0.0540
    1OPC    NC368950  15.803   1.801   7.283 -0.1246 -0.1181  0.0229
    1OPC    PO468951  15.468   1.829   7.375 -0.1124 -0.1355 -0.1594
    1OPC    GL168952  15.246   1.895   6.950 -0.3593 -0.2991  0.0033
    1OPC    GL268953  15.171   1.878   6.611 -0.1907  0.0029  0.3886
    1OPC    C1B68954  15.030   1.908   6.159  0.4097  0.1938  0.1924
    1OPC    D2B68955  14.686   2.092   5.819 -0.1123 -0.2289  0.3338
    1OPC    C3B68956  14.692   2.514   5.841 -0.3690 -0.1909 -0.1218
    1OPC    C4B68957  14.378   2.852   5.893 -0.1859 -0.0535  0.2799
    1OPC    NC368958  24.245   4.622   6.589  0.0163  0.1021 -0.0305
    1OPC    PO468959  24.005   4.883   6.384  0.0508  0.0848  0.0790
    1OPC    GL168960  23.885   4.783   5.954 -0.3091 -0.1717  0.1094
    1OPC    GL268961  23.846   5.010   5.753  0.0007 -0.3167  0.1120
    1OPC    C1B68962  23.704   5.230   5.319  0.1810  0.1374  0.3498
    1OPC    D2B68963  23.545   4.958   4.921  0.1625  0.1062  0.1652
    1OPC    C3B68964  23.504   4.991   4.441  0.1182 -0.0533 -0.2764
    1OPC    C4B68965  23.331   5.338   4.108 -0.0762 -0.0613  0.0857
    1OPC    NC368966   5.150   1.610   6.616 -0.0582 -0.1010  0.2515
    1OPC    PO468967   4.749   1.801   6.521  0.2351 -0.0474  0.0778
    1OPC    GL168968   5.036   1.889   6.162  0.2028  0.0421 -0.1586
    1OPC    GL268969   5.362   1.814   6.087  0.0534 -0.1210 -0.0207
    1OPC    C1B68970   5.691   1.868   5.694 -0.2805 -0.2643  0.1067
    1OPC    D2B68971   6.008   2.050   5.345  0.0614 -0.1415  0.0600
    1OPC    C3B68972   6.172   2.461   5.321  0.0007 -0.1592  0.0239
    1OPC    C4B68973   6.519   2.572   5.107 -0.0009  0.2164  0.1139
    1OPC    NC368974  23.689   8.151   7.207  0.2264 -0.0862 -0.1325
    1OPC    PO468975  23.651   7.945   6.830  0.0017  0.1576 -0.0560
    1OPC    GL168976  23.634   8.022   6.382  0.3121 -0.0705 -0.2731
    1OPC    GL268977  23.627   7.955   6.118  0.2775 -0.0421  0.1451
    1OPC    C1B68978  23.641   7.779   5.670 -0.1055 -0.0451 -0.0603
    1OPC    D2B68979  23.546   7.378   5.496 -0.2389 -0.0027  0.1293
    1OPC    C3B68980  23.352   7.014   5.149 -0.0574 -0.0387  0.3179
    1OPC    C4B68981  23.113   6.799   4.862  0.4419 -0.2841  0.1991
    1OPC    NC368982  21.931  19.375   7.506 -0.0223 -0.0232 -0.4790
    1OPC    PO468983  21.906  19.660   7.042  0.3070 -0.1385 -0.0299
    1OPC    GL168984  21.741  19.890   6.657 -0.1757  0.1866 -0.0417
    1OPC    GL268985  21.801  20.074   6.417  0.2238  0.0860  0.0293
    1OPC    C1B68986  21.612  20.166   6.042 -0.4200 -0.2723  0.0464
    1OPC    D2B68987  21.511  20.094   5.596  0.0357 -0.1842  0.2697
    1OPC    C3B68988  21.260  19.689   5.590 -0.0830 -0.3038 -0.1404
    1OPC    C4B68989  21.118  19.271   5.457 -0.2516  0.0735 -0.2167
    1OPC    NC368990   4.438  12.345   2.018  0.0481  0.1646 -0.4177
    1OPC    PO468991   4.553  12.615   2.391 -0.0298 -0.0733  0.1407
    1OPC    GL168992   4.485  12.572   2.822  0.1473 -0.1397  0.1724
    1OPC    GL268993   4.392  12.651   3.059  0.0594  0.0648  0.1303
    1OPC    C1B68994   4.414  12.939   3.478  0.1142 -0.3400  0.3364
    1OPC    D2B68995   4.174  13.129   3.806 -0.2566 -0.0171  0.2248
    1OPC    C3B68996   3.827  13.067   4.148  0.1000 -0.1651  0.4480
    1OPC    C4B68997   3.844  13.060   4.586  0.1024 -0.3577  0.2119
    1OPC    NC368998  27.791  28.412   2.610  0.0558  0.2729  0.3431
    1OPC    PO468999  28.086  28.677   2.869 -0.0232 -0.1546  0.0312
    1OPC    GL169000  27.849  28.562   3.124  0.1088  0.1087  0.0308
    1OPC    GL269001  27.772  28.446   3.437  0.1034 -0.0926 -0.0389
    1OPC    C1B69002  27.761  28.826   3.712 -0.1324  0.1076  0.0021
    1OPC    D2B69003  27.901  28.926   4.159  0.1772  0.1282 -0.1617
    1OPC    C3B69004  28.270  29.293   4.117  0.0972  0.1220 -0.0874
    1OPC    C4B69005  28.382  29.616   3.790  0.2001  0.4139 -0.3449
    1OPC    NC369006  18.410   7.417   2.549 -0.1038  0.2539 -0.0144
    1OPC    PO469007  18.313   7.508   2.973  0.0935 -0.1131 -0.0764
    1OPC    GL169008  18.306   7.493   3.392 -0.2294  0.0894 -0.0291
    1OPC    GL269009  18.100   7.454   3.590 -0.1674 -0.0116 -0.4106
    1OPC    C1B69010  17.945   7.369   3.917 -0.0641  0.0981  0.3942
    1OPC    D2B69011  18.054   7.102   4.327 -0.0187 -0.4018  0.0150
    1OPC    C3B69012  17.885   7.194   4.770 -0.0243  0.0117 -0.1912
    1OPC    C4B69013  17.794   7.489   5.032  0.2429 -0.1373  0.0158
    1OPC    NC369014  27.985  13.809   1.874  0.1580  0.2712  0.2270
    1OPC    PO469015  28.309  14.163   1.986 -0.0804  0.0970 -0.0874
    1OPC    GL169016  28.290  14.145   2.485 -0.0086 -0.3041 -0.0162
    1OPC    GL269017  28.388  14.156   2.774 -0.0864  0.2008  0.0297
    1OPC    C1B69018  28.340  14.267   3.189  0.1614 -0.1243  0.0311
    1OPC    D2B69019  28.303  14.170   3.576 -0.1521  0.0115  0.1340
    1OPC    C3B69020  27.978  14.211   3.813 -0.0557 -0.2865  0.0816
    1OPC    C4B69021  28.003  14.638   3.981 -0.2069 -0.2942 -0.1960
    1OPC    NC369022  13.947   0.213   4.195  0.0584  0.3644 -0.0412
    1OPC    PO469023  13.977  -0.092   4.450 -0.0374  0.1325 -0.3670
    1OPC    GL169024  13.526  -0.054   4.389 -0.0470 -0.1588  0.2479
    1OPC    GL269025  13.283   0.135   4.392  0.1291  0.3113  0.0090
    1OPC    C1B69026  13.320   0.440   4.713  0.2571 -0.4117  0.3715
    1OPC    D2B69027  13.275   0.601   5.170  0.1571 -0.0352 -0.1359
    1OPC    C3B69028  13.612   0.625   5.565  0.1884 -0.0027 -0.0113
    1OPC    C4B69029  13.971   0.670   5.862 -0.0137 -0.2678  0.1629
    1OPC    NC369030  27.140   1.426   2.811 -0.0970  0.0296  0.1178
    1OPC    PO469031  26.883   1.119   2.724 -0.1020 -0.1574  0.3279
    1OPC    GL169032  27.009   1.226   3.212 -0.1813 -0.1977  0.1356
    1OPC    GL269033  27.106   1.147   3.560  0.0014  0.2191  0.2221
    1OPC    C1B69034  27.136   1.564   3.860 -0.0455 -0.1312 -0.2340
    1OPC    D2B69035  27.193   1.939   4.009  0.0703 -0.1399 -0.0150
    1OPC    C3B69036  27.061   2.069   4.389  0.3107 -0.0073 -0.1422
    1OPC    C4B69037  27.332   1.945   4.776  0.0397 -0.1218  0.0005
    1OPC    NC369038   8.026  17.911   1.658 -0.4208  0.1890 -0.0538
    1OPC    PO469039   8.125  17.618   1.971  0.1010  0.0061  0.0591
    1OPC    GL169040   8.118  17.944   2.350 -0.1748  0.3567 -0.0083
    1OPC    GL269041   8.106  17.846   2.614 -0.1386  0.1298  0.1240
    1OPC    C1B69042   7.823  17.724   2.888 -0.1912  0.0100 -0.0543
    1OPC    D2B69043   7.708  17.631   3.334  0.0558 -0.3111  0.2112
    1OPC    C3B69044   7.962  17.329   3.622  0.0733  0.2468 -0.0228
    1OPC    C4B69045   7.774  17.139   3.889 -0.1317 -0.1415  0.1038
    1OPC    NC369046  22.242  10.263   2.809 -0.1380  0.4060  0.0685
    1OPC    PO469047  22.402  10.779   2.810  0.5851  0.1886 -0.5881
    1OPC    GL169048  22.621  10.974   3.074  0.0183 -0.0950 -0.0235
    1OPC    GL269049  22.637  11.138   3.336  0.1500  0.2552 -0.0080
    1OPC    C1B69050  22.746  11.094   3.759  0.4167  0.0739  0.1506
    1OPC    D2B69051  23.133  11.216   4.022  0.1115  0.0613 -0.0195
    1OPC    C3B69052  23.416  10.853   4.337 -0.1585 -0.1877 -0.0744
    1OPC    C4B69053  23.740  10.899   4.667  0.1265  0.1944 -0.2737
    1OPC    NC369054   9.594  21.945   1.935  0.0172 -0.0680  0.0166
    1OPC    PO469055   9.233  22.161   2.041  0.2806  0.1066  0.1734
    1OPC    GL169056   9.364  22.013   2.383 -0.1549  0.1842 -0.1765
    1OPC    GL269057   9.500  21.909   2.630 -0.2079  0.1059 -0.3827
    1OPC    C1B69058   9.882  22.009   2.971 -0.4021 -0.1625 -0.1072
    1OPC    D2B69059  10.091  22.163   3.300 -0.0036 -0.1733 -0.2192
    1OPC    C3B69060  10.176  21.955   3.747  0.1980  0.2014  0.2404
    1OPC    C4B69061  10.388  22.040   4.141 -0.0378 -0.0733 -0.2366
    1OPC    NC369062   7.494  25.772   1.631  0.1298 -0.0573  0.2210
    1OPC    PO469063   7.770  25.809   2.114  0.1084  0.1200 -0.1088
    1OPC    GL169064   7.945  25.678   2.509 -0.0059 -0.0380 -0.3721
    1OPC    GL269065   8.012  25.493   2.769 -0.0976 -0.2058  0.0153
    1OPC    C1B69066   7.890  25.575   3.207 -0.1750  0.0696 -0.0278
    1OPC    D2B69067   7.649  25.723   3.579  0.3465 -0.4078  0.2456
    1OPC    C3B69068   7.666  25.468   4.016  0.0996  0.3078 -0.0822
    1OPC    C4B69069   7.894  25.000   4.146  0.2148 -0.1493  0.2498
    1OPC    NC369070  18.171   0.601   3.122 -0.1143 -0.0326 -0.2975
    1OPC    PO469071  18.591   0.844   3.172 -0.0149  0.0442  0.3046
    1OPC    GL169072  18.863   0.725   3.397  0.0121  0.0450 -0.0409
    1OPC    GL269073  19.089   0.620   3.630 -0.0668  0.0171 -0.1223
    1OPC    C1B69074  19.146   0.809   4.005 -0.3849  0.0810  0.2181
    1OPC    D2B69075  19.163   0.943   4.485 -0.0311 -0.2600  0.3062
    1OPC    C3B69076  19.560   1.049   4.534  0.3782 -0.1919 -0.2861
    1OPC    C4B69077  19.943   0.810   4.730 -0.1146  0.2176 -0.1890
    1OPC    NC369078  12.196   5.434   3.499  0.1969  0.0686  0.0574
    1OPC    PO469079  12.370   5.827   3.442 -0.2410 -0.1225 -0.0762
    1OPC    GL169080  12.436   5.846   3.798  0.2562 -0.3048 -0.1821
    1OPC    GL269081  12.364   5.641   3.965  0.2982  0.2274  0.4341
    1OPC    C1B69082  12.193   5.695   4.341 -0.0189  0.1233 -0.0325
    1OPC    D2B69083  11.965   5.638   4.561 -0.1436  0.1499 -0.0163
    1OPC    C3B69084  11.708   5.868   4.746  0.1160  0.1814  0.2458
    1OPC    C4B69085  11.518   6.311   4.743  0.2188  0.0216  0.0390
    1OPC    NC369086   7.686  17.370   1.840  0.0189  0.0501 -0.0768
    1OPC    PO469087   7.433  17.536   2.079 -0.2412  0.1693 -0.2355
    1OPC    GL169088   7.212  17.556   2.489 -0.1590 -0.1130 -0.1118
    1OPC    GL269089   7.277  17.628   2.757 -0.1816 -0.2370 -0.1604
    1OPC    C1B69090   7.242  17.591   3.213  0.0123 -0.0988  0.0653
    1OPC    D2B69091   7.292  17.728   3.600  0.2344 -0.0824 -0.3700
    1OPC    C3B69092   7.240  17.940   4.039  0.2621  0.1104 -0.1964
    1OPC    C4B69093   7.551  18.073   4.483 -0.1773 -0.0553 -0.0921
    1OPC    NC369094   9.235  14.151   2.158 -0.0296  0.3330 -0.2639
    1OPC    PO469095   9.040  14.555   2.124  0.2038 -0.0323 -0.1749
    1OPC    GL169096   8.958  14.690   2.524  0.0875  0.2030 -0.2918
    1OPC    GL269097   8.899  14.737   2.899  0.0719  0.1480 -0.2457
    1OPC    C1B69098   8.663  14.920   3.286  0.1062 -0.2858 -0.2067
    1OPC    D2B69099   8.723  14.865   3.632  0.2428 -0.0808 -0.0149
    1OPC    C3B69100   8.404  14.883   3.848 -0.0197 -0.0377 -0.1601
    1OPC    C4B69101   8.236  14.872   4.158 -0.0412 -0.0334 -0.2041
    1OPC    NC369102  11.752   5.142   2.630  0.2179 -0.1042  0.3170
    1OPC    PO469103  11.526   5.286   2.970  0.2046  0.0388 -0.4363
    1OPC    GL169104  11.708   5.626   3.271  0.0303  0.1101 -0.1174
    1OPC    GL269105  11.825   5.808   3.565 -0.0010  0.1468 -0.0498
    1OPC    C1B69106  11.889   5.989   3.997  0.0639  0.1834  0.0747
    1OPC    D2B69107  11.929   6.150   4.404  0.2222  0.1625  0.0829
    1OPC    C3B69108  12.057   6.491   4.646  0.2578 -0.1522 -0.1431
    1OPC    C4B69109  12.197   6.795   4.953 -0.0828  0.0661 -0.0884
    1OPC    NC369110  21.360   4.348   2.428 -0.0407  0.1961  0.2016
    1OPC    PO469111  21.700   4.424   2.720 -0.0060  0.1371  0.1329
    1OPC    GL169112  21.861   4.512   3.099  0.0765 -0.1836  0.2256
    1OPC    GL269113  22.146   4.526   3.252  0.0111 -0.1153 -0.0038
    1OPC    C1B69114  22.248   4.408   3.614  0.0985 -0.0511  0.2422
    1OPC    D2B69115  22.126   4.460   4.103 -0.0474  0.3425 -0.1410
    1OPC    C3B69116  22.223   4.878   4.323  0.0463  0.1175  0.1571
    1OPC    C4B69117  22.383   5.036   4.638  0.1604  0.2763  0.1287
    1OPC    NC369118  26.351  17.348   2.750  0.0184 -0.0261 -0.1255
    1OPC    PO469119  26.673  17.323   2.965  0.0529 -0.0590 -0.0986
    1OPC    GL169120  26.932  17.470   3.247  0.3163 -0.1675  0.1528
    1OPC    GL269121  27.091  17.336   3.465 -0.0510 -0.2348 -0.2897
    1OPC    C1B69122  27.115  17.337   3.925  0.3211  0.1411  0.2685
    1OPC    D2B69123  27.288  17.072   4.213 -0.1072 -0.0597  0.3085
    1OPC    C3B69124  27.595  16.979   4.085  0.2169 -0.1706 -0.1140
    1OPC    C4B69125  27.798  16.643   3.988 -0.0531  0.1317  0.1030
    1OPC    NC369126   5.326  11.697   2.886  0.3381  0.0364  0.0222
    1OPC    PO469127   5.641  11.566   3.008 -0.0588 -0.1890  0.2014
    1OPC    GL169128   5.252  11.455   3.396 -0.0749 -0.2426  0.0735
    1OPC    GL269129   5.062  11.579   3.632 -0.1508  0.1966 -0.0114
    1OPC    C1B69130   4.848  11.638   3.974 -0.0088 -0.2268 -0.2057
    1OPC    D2B69131   4.627  11.830   4.325 -0.2971  0.0088  0.1431
    1OPC    C3B69132   4.810  12.029   4.761  0.0403  0.0786  0.0380
    1OPC    C4B69133   4.724  12.237   5.175 -0.2977 -0.1006  0.1410
    1OPC    NC369134  16.868  26.002   3.142  0.1711  0.2959  0.0599
    1OPC    PO469135  17.199  26.225   3.292 -0.1947 -0.2922 -0.2518
    1OPC    GL169136  16.805  26.093   3.649 -0.2403 -0.0799 -0.3353
    1OPC    GL269137  16.785  26.031   3.916  0.1305  0.0327  0.2530
    1OPC    C1B69138  16.839  26.111   4.299  0.1979 -0.2826 -0.0342
    1OPC    D2B69139  16.841  26.036   4.817  0.3546  0.0878  0.1276
    1OPC    C3B69140  16.613  25.649   4.930  0.0715  0.1804 -0.0764
    1OPC    C4B69141  16.511  25.227   4.733 -0.0350  0.4041 -0.1752
    1OPC    NC369142   7.569  14.729   2.491  0.0352 -0.0691  0.1860
    1OPC    PO469143   7.395  15.174   2.441  0.1551  0.1220  0.0331
    1OPC    GL169144   7.446  15.207   2.911 -0.0816  0.1303 -0.0432
    1OPC    GL269145   7.390  15.324   3.239  0.1686 -0.1606  0.3782
    1OPC    C1B69146   7.248  15.375   3.650  0.1774  0.2278  0.0480
    1OPC    D2B69147   7.242  15.389   4.095 -0.0861 -0.4445 -0.0757
    1OPC    C3B69148   7.327  15.076   4.433 -0.0102 -0.0250  0.0853
    1OPC    C4B69149   7.121  14.699   4.651  0.2928 -0.1510  0.0166
    1OPC    NC369150  22.046   7.799   2.819 -0.0288 -0.1229 -0.0820
    1OPC    PO469151  21.833   7.492   3.035  0.0784  0.0978 -0.2648
    1OPC    GL169152  21.529   7.223   3.176  0.2664 -0.3678 -0.0610
    1OPC    GL269153  21.526   7.200   3.533 -0.2206  0.1618 -0.0782
    1OPC    C1B69154  21.483   7.304   3.927  0.0008  0.0616  0.1722
    1OPC    D2B69155  21.627   7.389   4.306 -0.1720 -0.0697 -0.1127
    1OPC    C3B69156  21.954   7.759   4.478  0.1352  0.0846  0.1034
    1OPC    C4B69157  22.300   7.741   4.874 -0.2749  0.1324  0.1051
    1OPC    NC369158  25.715  20.447   2.621  0.1417  0.0757 -0.2279
    1OPC    PO469159  25.490  20.358   2.864  0.3211  0.0672  0.0199
    1OPC    GL169160  25.598  20.073   3.251 -0.0321 -0.2148 -0.0164
    1OPC    GL269161  25.482  19.803   3.545  0.1414  0.0531 -0.0356
    1OPC    C1B69162  25.653  19.719   3.987 -0.1230 -0.2694 -0.0749
    1OPC    D2B69163  25.669  19.776   4.354  0.1044 -0.0410 -0.2870
    1OPC    C3B69164  25.309  19.740   4.728  0.0436 -0.2256  0.1543
    1OPC    C4B69165  25.059  19.564   5.114 -0.2490  0.0994 -0.1184
    1OPC    NC369166  23.276  22.829   3.454 -0.2259 -0.0904  0.1010
    1OPC    PO469167  23.056  23.243   3.270  0.1760  0.0658  0.0770
    1OPC    GL169168  23.026  23.412   3.755 -0.2340 -0.1925 -0.1406
    1OPC    GL269169  23.030  23.294   4.102  0.2744  0.0867  0.0849
    1OPC    C1B69170  22.831  22.912   4.150 -0.0515  0.0146  0.1331
    1OPC    D2B69171  22.662  22.512   4.073  0.2027  0.2380  0.0340
    1OPC    C3B69172  22.907  22.199   4.244  0.5375 -0.1244 -0.1423
    1OPC    C4B69173  22.660  21.860   4.394 -0.1720 -0.1290 -0.3407
    1OPC    NC369174   6.515  14.279   2.560  0.0446 -0.0775 -0.2089
    1OPC    PO469175   6.738  14.559   2.414 -0.0925 -0.2894  0.0296
    1OPC    GL169176   7.098  14.778   2.651 -0.1607 -0.0324 -0.2366
    1OPC    GL269177   7.138  14.829   2.977  0.2178  0.0510  0.2695
    1OPC    C1B69178   6.760  14.728   3.267 -0.0420 -0.3014 -0.0107
    1OPC    D2B69179   6.356  14.635   3.291 -0.1533 -0.0184  0.1125
    1OPC    C3B69180   6.053  14.690   3.694 -0.0990 -0.1558  0.1480
    1OPC    C4B69181   5.644  14.506   3.863 -0.0146  0.1164 -0.1311
    1OPC    NC369182   3.317   2.688   2.757  0.0917 -0.2898  0.0378
    1OPC    PO469183   3.470   2.437   3.216  0.1171 -0.3117  0.0270
    1OPC    GL169184   3.690   2.894   3.269 -0.0653 -0.2249  0.0748
    1OPC    GL269185   3.867   2.946   3.338 -0.1296  0.2510  0.1340
    1OPC    C1B69186   3.934   3.196   3.659  0.1519 -0.1277  0.1080
    1OPC    D2B69187   4.098   3.442   3.920 -0.5007  0.1900 -0.1075
    1OPC    C3B69188   4.169   3.788   4.200  0.0645  0.3764  0.0134
    1OPC    C4B69189   4.096   3.867   4.647  0.0036 -0.0479 -0.0352
    1OPC    NC369190   9.331  29.105   3.368 -0.1424  0.0920 -0.1028
    1OPC    PO469191   9.084  29.497   3.265  0.2031 -0.2178  0.4236
    1OPC    GL169192   8.967  29.598   3.597 -0.0128  0.2340 -0.0234
    1OPC    GL269193   9.127  29.702   3.849 -0.1171 -0.1955  0.1031
    1OPC    C1B69194   9.207  29.976   4.147 -0.2526 -0.5384 -0.3189
    1OPC    D2B69195   8.948  30.047   4.425  0.3786  0.1675 -0.1348
    1OPC    C3B69196   8.828  30.465   4.473 -0.1551  0.1322 -0.0173
    1OPC    C4B69197   8.912  30.904   4.387  0.0458  0.1272 -0.5221
    1OPC    NC369198   1.428  14.613   1.628 -0.3041 -0.1007  0.1164
    1OPC    PO469199   1.217  14.262   1.692 -0.2481 -0.0183 -0.1006
    1OPC    GL169200   1.162  14.296   2.089  0.2788 -0.0123 -0.3511
    1OPC    GL269201   1.209  14.402   2.379 -0.1361  0.1633 -0.1336
    1OPC    C1B69202   1.235  14.304   2.767 -0.0640  0.2540 -0.2506
    1OPC    D2B69203   1.193  14.152   3.262  0.2242 -0.1022  0.2139
    1OPC    C3B69204   0.946  14.077   3.617  0.2400 -0.0505 -0.1161
    1OPC    C4B69205   0.900  14.425   3.922 -0.1947  0.0644 -0.3338
    1OPC    NC369206  10.837  23.206   1.902  0.0357  0.1876  0.1108
    1OPC    PO469207  10.484  23.264   2.159 -0.0723  0.0358 -0.0202
    1OPC    GL169208  10.550  23.167   2.565  0.1300  0.0117  0.0035
    1OPC    GL269209  10.747  23.074   2.805  0.0853  0.2564 -0.3699
    1OPC    C1B69210  10.773  22.853   3.246 -0.2009  0.0053  0.1144
    1OPC    D2B69211  10.644  22.823   3.648  0.0785  0.2630 -0.1602
    1OPC    C3B69212  10.820  22.846   4.096 -0.0279  0.0630  0.0659
    1OPC    C4B69213  10.613  22.922   4.445  0.0772 -0.2861 -0.2001
    1OPC    NC369214  14.128   0.580   3.472 -0.0539  0.0511 -0.1221
    1OPC    PO469215  14.155   0.152   3.748  0.1396  0.2080 -0.1176
    1OPC    GL169216  14.425   0.164   4.210 -0.1917 -0.3213  0.0113
    1OPC    GL269217  14.403   0.252   4.547  0.2132  0.0114 -0.2641
    1OPC    C1B69218  14.318   0.397   4.942 -0.0708 -0.4491 -0.2303
    1OPC    D2B69219  14.339   0.655   5.235 -0.2871 -0.2569 -0.2163
    1OPC    C3B69220  14.030   0.881   5.448  0.2355  0.0585 -0.2236
    1OPC    C4B69221  13.793   1.191   5.639 -0.0976  0.2958 -0.3134
    1OPC    NC369222   9.186  22.627   2.000 -0.2571 -0.0255  0.0423
    1OPC    PO469223   8.806  22.975   2.055 -0.0612 -0.0583  0.3105
    1OPC    GL169224   9.093  22.968   2.377  0.1809  0.0772  0.1113
    1OPC    GL269225   9.154  23.104   2.682 -0.0311 -0.1113  0.5054
    1OPC    C1B69226   9.347  23.176   3.054  0.1050 -0.1136 -0.5365
    1OPC    D2B69227   9.556  23.146   3.353 -0.1051 -0.2844  0.3203
    1OPC    C3B69228   9.921  22.927   3.550  0.1175 -0.0918 -0.3943
    1OPC    C4B69229   9.760  22.695   3.947  0.0272 -0.0070 -0.0983
    1OPC    NC369230  27.622  15.782   1.358  0.2533  0.0494 -0.2039
    1OPC    PO469231  27.286  15.765   1.671  0.1649  0.1223 -0.2023
    1OPC    GL169232  27.116  15.718   2.132 -0.1812 -0.0725 -0.1021
    1OPC    GL269233  27.179  15.772   2.468  0.4726  0.0067  0.2807
    1OPC    C1B69234  27.315  15.565   2.927 -0.0447  0.1035 -0.3482
    1OPC    D2B69235  27.312  15.549   3.295  0.1800 -0.0307 -0.0269
    1OPC    C3B69236  26.918  15.367   3.510  0.3211  0.2057 -0.2359
    1OPC    C4B69237  26.815  15.156   3.813  0.4127  0.3458 -0.0219
    1OPC    NC369238   0.341  14.043   1.714  0.1008 -0.2367  0.2694
    1OPC    PO469239   0.417  14.000   2.139 -0.0237 -0.1296  0.1675
    1OPC    GL169240   0.723  14.178   2.376 -0.2222  0.3822  0.1035
    1OPC    GL269241   0.904  13.969   2.677 -0.1346  0.2489  0.2564
    1OPC    C1B69242   0.804  13.935   3.058  0.1566 -0.1455 -0.1588
    1OPC    D2B69243   0.586  14.270   3.234  0.1829  0.2940  0.0919
    1OPC    C3B69244   0.669  14.608   3.499  0.3095  0.0704  0.1788
    1OPC    C4B69245   0.823  14.873   3.693  0.0374  0.0967 -0.1752
    1OPC    NC369246   3.681   8.502   2.492 -0.0859  0.0064  0.0631
    1OPC    PO469247   3.767   8.087   2.252  0.2379  0.4619  0.0163
    1OPC    GL169248   3.911   8.094   2.667 -0.3026  0.2284  0.2688
    1OPC    GL269249   3.885   8.293   2.993  0.1145  0.0644 -0.0674
    1OPC    C1B69250   3.576   8.280   3.295  0.0250  0.0378 -0.2345
    1OPC    D2B69251   3.330   8.016   3.452 -0.0287  0.1813 -0.0669
    1OPC    C3B69252   3.326   7.985   3.918 -0.0402  0.0613 -0.0468
    1OPC    C4B69253   3.554   7.785   4.252 -0.3384 -0.2266 -0.1612
    1OPC    NC369254  27.504  27.224   3.148 -0.1479 -0.1240 -0.0469
    1OPC    PO469255  27.382  27.609   3.091 -0.0428  0.1108  0.1882
    1OPC    GL169256  27.454  27.483   3.620  0.5347 -0.2500  0.0247
    1OPC    GL269257  27.464  27.494   3.884  0.1120  0.0971 -0.2054
    1OPC    C1B69258  27.451  27.597   4.355  0.2486  0.2050  0.0232
    1OPC    D2B69259  27.579  27.346   4.727  0.1182  0.0834  0.0197
    1OPC    C3B69260  27.851  26.976   4.639 -0.2068 -0.5272 -0.1611
    1OPC    C4B69261  28.299  26.841   4.801 -0.2590 -0.1145 -0.1290
    1OPC    NC369262   0.770  13.498   2.132 -0.0622  0.1175 -0.0777
    1OPC    PO469263   1.106  13.280   2.278  0.1520 -0.0226 -0.0077
    1OPC    GL169264   0.990  13.494   2.572 -0.1594  0.2059  0.1560
    1OPC    GL269265   0.955  13.393   2.865  0.1264 -0.1617  0.0127
    1OPC    C1B69266   1.235  13.211   3.168  0.2471 -0.1752  0.0715
    1OPC    D2B69267   1.656  13.316   3.486 -0.0077 -0.1221  0.1623
    1OPC    C3B69268   1.887  13.088   3.835 -0.1206 -0.2800  0.1603
    1OPC    C4B69269   1.614  12.771   3.918 -0.0728  0.0600  0.1279
    1OPC    NC369270  22.168  29.159   2.255  0.0701  0.0781  0.1196
    1OPC    PO469271  22.440  29.398   2.490  0.4144  0.0709 -0.1337
    1OPC    GL169272  22.397  29.620   2.808 -0.0260 -0.0844  0.0870
    1OPC    GL269273  22.330  29.615   3.151  0.1071 -0.0264 -0.3117
    1OPC    C1B69274  22.301  29.576   3.578  0.0073 -0.1931 -0.0644
    1OPC    D2B69275  22.555  29.730   3.918 -0.0888  0.0387  0.1237
    1OPC    C3B69276  22.424  29.832   4.335 -0.3652 -0.0746 -0.2056
    1OPC    C4B69277  22.142  29.807   4.669 -0.0373  0.0280 -0.2190
    1OPC    NC369278  16.528   4.825   3.618 -0.2113 -0.1022 -0.0073
    1OPC    PO469279  16.717   4.431   3.717  0.0047 -0.0540 -0.2502
    1OPC    GL169280  16.528   4.212   4.085 -0.0034 -0.0408 -0.0270
    1OPC    GL269281  16.300   4.200   4.440 -0.1380 -0.1855 -0.2673
    1OPC    C1B69282  16.486   3.991   4.788 -0.0250 -0.3068 -0.0016
    1OPC    D2B69283  16.753   3.862   5.029 -0.0267  0.2717 -0.0541
    1OPC    C3B69284  16.881   3.462   5.219  0.3540  0.2359  0.0974
    1OPC    C4B69285  17.131   3.111   5.129  0.1376 -0.1158  0.1860
    1OPC    NC369286  12.929  22.851   2.737 -0.1819 -0.0876  0.3188
    1OPC    PO469287  12.903  23.199   3.004  0.1248  0.1486  0.1724
    1OPC    GL169288  12.507  23.183   3.288 -0.0327 -0.1703 -0.2080
    1OPC    GL269289  12.213  22.966   3.325  0.3290  0.2787  0.3193
    1OPC    C1B69290  12.106  22.641   3.572  0.0826 -0.0008  0.1858
    1OPC    D2B69291  11.925  22.502   3.945 -0.0744 -0.1907  0.1680
    1OPC    C3B69292  12.181  22.520   4.293  0.0555 -0.2268 -0.1103
    1OPC    C4B69293  12.402  22.716   4.591  0.0966 -0.0816 -0.1285
    1OPC    NC369294   9.433   6.593   2.855 -0.0870  0.0198 -0.1990
    1OPC    PO469295   9.729   6.915   2.757  0.0274 -0.1360  0.1488
    1OPC    GL169296   9.881   6.613   3.205 -0.0745 -0.1701 -0.1415
    1OPC    GL269297   9.853   6.692   3.527  0.0762  0.2780 -0.0002
    1OPC    C1B69298   9.857   6.744   3.979  0.0855 -0.0334 -0.3500
    1OPC    D2B69299   9.812   6.589   4.434  0.1053  0.0350 -0.0798
    1OPC    C3B69300   9.708   6.728   4.851 -0.0987  0.1424  0.0785
    1OPC    C4B69301   9.742   6.696   5.232  0.2834  0.1467  0.2230
    1OPC    NC369302  12.760   4.872   3.267  0.0797 -0.1855  0.1891
    1OPC    PO469303  12.593   5.125   3.632 -0.0683 -0.1332  0.2656
    1OPC    GL169304  12.614   4.995   4.033  0.1390 -0.1100 -0.0783
    1OPC    GL269305  12.770   4.724   4.279 -0.0230 -0.0891 -0.0865
    1OPC    C1B69306  12.665   4.495   4.578  0.1096  0.0051 -0.1465
    1OPC    D2B69307  12.472   4.209   4.891 -0.2611  0.0863 -0.0460
    1OPC    C3B69308  12.254   3.886   4.917 -0.0154 -0.1608 -0.0828
    1OPC    C4B69309  12.180   3.720   5.372  0.1411  0.0760  0.2240
    1OPC    NC369310   4.996   5.507   2.992 -0.0340  0.0996  0.0866
    1OPC    PO469311   5.382   5.682   2.921 -0.2448  0.1263  0.1670
    1OPC    GL169312   5.292   5.634   3.407 -0.3494 -0.2893 -0.2794
    1OPC    GL269313   5.385   5.680   3.739 -0.0334 -0.1616  0.2550
    1OPC    C1B69314   5.271   5.542   4.114  0.1577  0.1134  0.0592
    1OPC    D2B69315   5.627   5.305   4.259  0.2921  0.1140 -0.0872
    1OPC    C3B69316   5.736   5.098   4.737 -0.1704  0.1461  0.3773
    1OPC    C4B69317   5.631   5.116   5.151 -0.3099 -0.1493 -0.0497
    1OPC    NC369318  24.590  22.135   2.956 -0.3773  0.0001  0.0139
    1OPC    PO469319  24.608  22.377   3.397 -0.1314  0.0281  0.1997
    1OPC    GL169320  24.743  22.511   3.842 -0.3333 -0.1793  0.0414
    1OPC    GL269321  24.745  22.415   4.140  0.2062  0.1834  0.0628
    1OPC    C1B69322  24.787  22.556   4.575 -0.1157 -0.1369 -0.0447
    1OPC    D2B69323  24.924  22.429   4.996  0.0678 -0.1683  0.2128
    1OPC    C3B69324  25.216  22.143   5.152 -0.2793  0.2974 -0.0998
    1OPC    C4B69325  25.686  22.012   4.985  0.0086  0.0784 -0.0598
    1OPC    NC369326  11.973   3.813   3.532 -0.2886 -0.1249 -0.1481
    1OPC    PO469327  12.096   4.248   3.593  0.0686 -0.2203 -0.0592
    1OPC    GL169328  11.979   4.433   3.951 -0.3542  0.1813 -0.0061
    1OPC    GL269329  11.686   4.469   4.142  0.0229 -0.0325 -0.0280
    1OPC    C1B69330  11.615   4.507   4.585 -0.1824 -0.4301  0.2983
    1OPC    D2B69331  11.908   4.315   4.876 -0.0722  0.0921  0.0182
    1OPC    C3B69332  11.769   3.876   5.000 -0.1289 -0.4114 -0.0031
    1OPC    C4B69333  11.550   3.669   5.264 -0.1888 -0.2253 -0.1065
    1OPC    NC369334  16.265  22.242   2.561 -0.2492 -0.1579 -0.0324
    1OPC    PO469335  15.769  22.365   2.629 -0.2777 -0.4169  0.0542
    1OPC    GL169336  15.932  22.028   2.888  0.0352  0.0308 -0.0651
    1OPC    GL269337  15.944  21.958   3.171 -0.1321  0.5293 -0.0623
    1OPC    C1B69338  16.084  21.904   3.684  0.0935  0.0666  0.0764
    1OPC    D2B69339  16.175  22.057   4.081  0.0697 -0.1115 -0.0639
    1OPC    C3B69340  15.948  22.315   4.264  0.0531 -0.0648 -0.0531
    1OPC    C4B69341  15.592  22.318   4.489  0.0874  0.0050 -0.1650
    1OPC    NC369342  27.992   3.202   2.370  0.1973 -0.2984 -0.1363
    1OPC    PO469343  28.036   2.843   2.707  0.1320 -0.2645 -0.0621
    1OPC    GL169344  27.961   2.707   3.111 -0.3083 -0.0911 -0.1932
    1OPC    GL269345  27.868   2.494   3.349 -0.2504  0.0294  0.0605
    1OPC    C1B69346  27.663   2.644   3.693  0.0015 -0.0117  0.0539
    1OPC    D2B69347  27.656   2.697   4.170  0.2456  0.0118 -0.0612
    1OPC    C3B69348  27.516   2.278   4.212  0.0818 -0.1242 -0.1691
    1OPC    C4B69349  27.761   2.135   3.855  0.0234 -0.2225 -0.1316
    1OPC    NC369350  22.149  12.850   2.571  0.1947  0.2344  0.0017
    1OPC    PO469351  22.238  13.065   2.317  0.0655 -0.1290 -0.3258
    1OPC    GL169352  22.453  13.452   2.546 -0.1588 -0.2782 -0.2365
    1OPC    GL269353  22.500  13.632   2.669 -0.0400  0.1326  0.0051
    1OPC    C1B69354  22.541  13.951   3.056 -0.0026  0.0571  0.2127
    1OPC    D2B69355  22.450  14.109   3.459 -0.1086  0.1252  0.2025
    1OPC    C3B69356  22.535  14.428   3.659 -0.2645 -0.2341  0.0823
    1OPC    C4B69357  22.498  14.838   3.699 -0.0154  0.1521 -0.0824
    1OPC    NC369358  12.236   0.866   3.690 -0.1636  0.1341 -0.1771
    1OPC    PO469359  12.062   1.284   3.573  0.1345  0.3888  0.0547
    1OPC    GL169360  12.156   1.415   3.955 -0.4694 -0.0279 -0.0303
    1OPC    GL269361  12.064   1.669   4.075  0.1303  0.0745  0.0673
    1OPC    C1B69362  11.837   1.733   4.523 -0.1327 -0.5049  0.1007
    1OPC    D2B69363  11.501   1.771   4.593  0.0954 -0.2404 -0.1448
    1OPC    C3B69364  11.349   1.411   4.802 -0.0410 -0.0473 -0.2384
    1OPC    C4B69365  11.556   0.950   4.907 -0.0106  0.1339 -0.0895
    1OPC    NC369366  28.271   1.050   2.964  0.0580 -0.0920  0.0594
    1OPC    PO469367  27.880   1.101   3.127 -0.1306  0.3040 -0.3244
    1OPC    GL169368  28.051   0.888   3.453  0.0911 -0.0315  0.2285
    1OPC    GL269369  28.232   0.776   3.757  0.0079  0.2412  0.0676
    1OPC    C1B69370  28.555   0.727   3.955 -0.1965  0.3589 -0.1596
    1OPC    D2B69371  28.942   0.775   4.256  0.0780 -0.1584  0.0937
    1OPC    C3B69372  28.808   1.273   4.501 -0.0331 -0.1053  0.0870
    1OPC    C4B69373  28.350   1.462   4.533 -0.0570 -0.0514  0.0791
    1OPC    NC369374   1.434   1.994   3.235 -0.1020  0.0417  0.0632
    1OPC    PO469375   1.779   1.939   3.426 -0.0669 -0.0753 -0.3976
    1OPC    GL169376   1.888   2.059   3.773 -0.0619  0.3429 -0.0603
    1OPC    GL269377   1.845   2.295   3.983 -0.3154 -0.0815 -0.1274
    1OPC    C1B69378   1.743   2.571   4.322 -0.1642  0.1992 -0.0575
    1OPC    D2B69379   1.337   2.554   4.608 -0.2065  0.1573 -0.0201
    1OPC    C3B69380   1.257   2.437   5.073 -0.3198 -0.2353  0.0443
    1OPC    C4B69381   1.642   2.591   5.380  0.0206  0.1069  0.3288
    1OPC    NC369382  25.890  26.691   3.275  0.1391  0.0375  0.0510
    1OPC    PO469383  26.143  27.015   3.299 -0.0918  0.0018  0.1957
    1OPC    GL169384  25.904  27.063   3.618 -0.2306  0.0333  0.2207
    1OPC    GL269385  25.961  27.083   3.861 -0.0866 -0.1595 -0.2449
    1OPC    C1B69386  25.937  26.738   4.186  0.1254 -0.2600 -0.0611
    1OPC    D2B69387  26.118  26.559   4.567  0.2191 -0.0504  0.0950
    1OPC    C3B69388  26.396  26.120   4.642 -0.1399  0.1468  0.1807
    1OPC    C4B69389  26.234  25.810   4.625  0.1295 -0.2227  0.0393
    1OPC    NC369390   0.355   6.108   1.977  0.1843  0.0288 -0.0895
    1OPC    PO469391   0.236   6.080   2.437  0.0554 -0.3859 -0.3928
    1OPC    GL169392   0.576   6.063   2.727 -0.1510 -0.0887  0.0153
    1OPC    GL269393   0.572   5.840   3.022  0.1545 -0.1125 -0.3458
    1OPC    C1B69394   0.552   5.883   3.504 -0.0921  0.0549  0.2800
    1OPC    D2B69395   0.285   6.298   3.575  0.3228  0.3008 -0.0795
    1OPC    C3B69396   0.103   6.714   3.543  0.0214 -0.5320  0.0800
    1OPC    C4B69397  -0.285   6.952   3.535 -0.1503  0.1295  0.1158
    1OPC    NC369398  13.903   5.612   3.736 -0.1582 -0.3760  0.2079
    1OPC    PO469399  14.185   5.253   3.734  0.2189 -0.0326 -0.3170
    1OPC    GL169400  14.196   5.209   4.145  0.1128  0.1048 -0.0202
    1OPC    GL269401  14.211   5.024   4.402  0.0092  0.0070 -0.0251
    1OPC    C1B69402  14.227   4.883   4.783 -0.0160  0.2393 -0.0867
    1OPC    D2B69403  14.051   4.643   5.195  0.0692 -0.5719  0.0580
    1OPC    C3B69404  14.239   4.850   5.531  0.1238  0.0119  0.3328
    1OPC    C4B69405  14.153   4.835   5.969 -0.0006 -0.2750  0.0633
    1OPC    NC369406  28.590   3.683   2.876 -0.0245  0.0902 -0.3297
    1OPC    PO469407  28.217   3.633   2.540 -0.0152 -0.0638  0.0120
    1OPC    GL169408  28.214   3.359   2.896  0.0845  0.0426  0.1265
    1OPC    GL269409  28.205   3.108   3.212  0.0363 -0.0507 -0.0985
    1OPC    C1B69410  28.126   2.889   3.634  0.0720 -0.1236  0.2426
    1OPC    D2B69411  28.088   2.995   3.994  0.1911 -0.0045  0.1169
    1OPC    C3B69412  27.776   3.147   3.975 -0.1372 -0.0585 -0.1477
    1OPC    C4B69413  27.319   3.076   4.142 -0.1177  0.3079 -0.1789
    1OPC    NC369414  20.708   9.157   3.309 -0.0075  0.0174  0.3914
    1OPC    PO469415  20.529   9.544   3.097 -0.1317 -0.3094  0.2514
    1OPC    GL169416  20.322   9.401   3.480 -0.2133 -0.2122  0.0784
    1OPC    GL269417  20.128   9.299   3.734 -0.0895 -0.3289  0.1323
    1OPC    C1B69418  19.985   9.286   4.092 -0.0128  0.2166 -0.2128
    1OPC    D2B69419  20.080   9.093   4.553 -0.1561 -0.0535  0.0636
    1OPC    C3B69420  19.914   9.101   4.953  0.1794 -0.0769 -0.2125
    1OPC    C4B69421  19.803   9.443   5.246 -0.0249  0.1677  0.0052
    1OPC    NC369422   8.205  19.311   2.177 -0.0550  0.0287 -0.0653
    1OPC    PO469423   8.574  19.340   2.429 -0.1645  0.0949  0.1481
    1OPC    GL169424   8.528  19.355   2.904 -0.5203 -0.0096 -0.1310
    1OPC    GL269425   8.493  19.410   3.200 -0.1707 -0.1477 -0.0478
    1OPC    C1B69426   8.665  19.449   3.593 -0.1294  0.1983 -0.3121
    1OPC    D2B69427   8.709  19.374   4.073 -0.2552 -0.1744  0.0082
    1OPC    C3B69428   8.372  19.330   4.377 -0.0473  0.0299 -0.0653
    1OPC    C4B69429   8.204  19.170   4.731  0.0830 -0.0317 -0.0744
    1OPC    NC369430  23.186  24.562   2.675  0.2515 -0.1232 -0.0450
    1OPC    PO469431  22.924  24.666   2.994 -0.3811  0.0854 -0.1636
    1OPC    GL169432  23.210  24.851   3.308 -0.2279 -0.0314 -0.0751
    1OPC    GL269433  23.400  24.920   3.587 -0.2935  0.0977 -0.2416
    1OPC    C1B69434  23.305  25.257   3.898  0.0141  0.2862 -0.2333
    1OPC    D2B69435  23.516  25.490   4.192 -0.1012 -0.4161 -0.1636
    1OPC    C3B69436  23.640  25.332   4.579 -0.0670 -0.0256 -0.1214
    1OPC    C4B69437  23.908  25.234   4.966  0.0863 -0.1561 -0.3261
    1OPC    NC369438   3.237  12.375   2.419 -0.1323  0.1836  0.2959
    1OPC    PO469439   2.924  12.052   2.584  0.0124  0.0739 -0.1340
    1OPC    GL169440   2.670  12.056   2.913 -0.1387  0.0774 -0.3079
    1OPC    GL269441   2.574  12.281   3.171  0.0296 -0.2417 -0.1866
    1OPC    C1B69442   2.416  12.594   3.413 -0.0057 -0.0277 -0.1863
    1OPC    D2B69443   2.438  13.031   3.423 -0.2492 -0.2443  0.0439
    1OPC    C3B69444   2.431  13.251   3.868 -0.0971 -0.3426  0.0670
    1OPC    C4B69445   2.486  13.421   4.126 -0.2005 -0.3196  0.0929
    1OPC    NC369446   0.747   9.430   2.587 -0.0453  0.2536  0.2371
    1OPC    PO469447   1.059   9.694   2.905  0.0095 -0.0547 -0.0575
    1OPC    GL169448   0.918   9.384   3.120  0.1189 -0.2807  0.0992
    1OPC    GL269449   0.872   9.080   3.292 -0.2202  0.1982  0.3126
    1OPC    C1B69450   1.081   8.804   3.648 -0.2184 -0.1255 -0.1784
    1OPC    D2B69451   1.392   8.879   3.911 -0.0758 -0.0168 -0.1866
    1OPC    C3B69452   1.653   8.663   4.240  0.1471 -0.3278 -0.1325
    1OPC    C4B69453   1.742   8.226   4.284  0.1548 -0.0706  0.0210
    1OPC    NC369454   3.754  17.317   1.804 -0.1790 -0.2928 -0.1088
    1OPC    PO469455   3.536  16.984   2.090 -0.1900  0.2008 -0.0017
    1OPC    GL169456   3.724  17.003   2.571 -0.0421  0.1754 -0.0927
    1OPC    GL269457   3.710  17.263   2.836  0.2469  0.1645 -0.1782
    1OPC    C1B69458   3.748  17.414   3.211 -0.1569 -0.0188  0.0196
    1OPC    D2B69459   3.479  17.357   3.604  0.0484  0.1885  0.4812
    1OPC    C3B69460   3.759  17.346   3.911 -0.0040 -0.2210 -0.0308
    1OPC    C4B69461   3.998  17.297   4.245  0.1309  0.3325  0.3885
    1OPC    NC369462   4.243   9.004   2.423  0.0277  0.2749  0.1047
    1OPC    PO469463   4.220   8.522   2.426 -0.0230  0.1922 -0.2920
    1OPC    GL169464   4.367   8.300   2.838 -0.0293  0.0353  0.1910
    1OPC    GL269465   4.464   8.360   3.130 -0.0055 -0.1363 -0.1586
    1OPC    C1B69466   4.616   8.569   3.665 -0.0031 -0.3325 -0.2378
    1OPC    D2B69467   4.330   8.736   3.925 -0.1224 -0.1717 -0.1181
    1OPC    C3B69468   4.225   8.540   4.361 -0.2754  0.1095 -0.2743
    1OPC    C4B69469   3.988   8.322   4.696  0.0688  0.1830  0.2588
    1OPC    NC369470  16.154   7.449   2.980  0.1216  0.1443  0.1639
    1OPC    PO469471  16.489   7.755   2.950  0.0956  0.0275 -0.1538
    1OPC    GL169472  16.252   7.732   3.355 -0.0396  0.0839  0.3186
    1OPC    GL269473  16.036   7.750   3.571 -0.0337 -0.1465  0.3088
    1OPC    C1B69474  15.996   7.998   4.056  0.2232 -0.0180 -0.3249
    1OPC    D2B69475  16.006   8.489   4.019 -0.5285  0.3400 -0.2579
    1OPC    C3B69476  16.481   8.547   3.936 -0.0703  0.4413 -0.1212
    1OPC    C4B69477  16.770   8.855   4.131 -0.0364 -0.0366 -0.2961
    1OPC    NC369478  29.291  26.841   2.978  0.2842 -0.0319 -0.1743
    1OPC    PO469479  29.506  26.439   3.007  0.3868  0.0559 -0.1842
    1OPC    GL169480  29.785  26.510   3.415 -0.1206  0.2771 -0.0864
    1OPC    GL269481  29.615  26.345   3.698 -0.0943 -0.1187  0.0969
    1OPC    C1B69482  29.485  26.122   4.158 -0.0837 -0.2412 -0.0229
    1OPC    D2B69483  29.392  26.043   4.564 -0.2420 -0.0220 -0.3851
    1OPC    C3B69484  29.645  25.782   4.727  0.0024  0.2610 -0.0955
    1OPC    C4B69485  29.894  25.458   4.684  0.1745 -0.1150  0.0384
    1OPC    NC369486   1.618  16.671   2.228 -0.0144  0.1388  0.0720
    1OPC    PO469487   2.060  16.632   2.266 -0.0571  0.1764  0.1720
    1OPC    GL169488   1.983  16.765   2.583 -0.0304  0.0246 -0.2442
    1OPC    GL269489   1.811  16.759   2.881  0.1821 -0.2958  0.2412
    1OPC    C1B69490   1.833  16.659   3.236  0.0937  0.0226  0.0897
    1OPC    D2B69491   1.816  16.775   3.654  0.1275  0.0374  0.0163
    1OPC    C3B69492   1.847  16.657   4.085 -0.2946 -0.2544  0.0565
    1OPC    C4B69493   2.025  16.360   4.314 -0.2326  0.0274  0.2719
    1OPC    NC369494  25.317  28.420   2.497 -0.0874 -0.5107 -0.3114
    1OPC    PO469495  24.884  28.573   2.551 -0.3200 -0.0233  0.0195
    1OPC    GL169496  24.931  28.534   2.960  0.1446  0.1652  0.0689
    1OPC    GL269497  24.747  28.444   3.333  0.3439 -0.3257  0.0058
    1OPC    C1B69498  24.756  28.511   3.809  0.2023  0.1813 -0.4365
    1OPC    D2B69499  24.449  28.595   4.078 -0.1162 -0.2420  0.0917
    1OPC    C3B69500  24.197  28.327   4.034 -0.2337 -0.0610 -0.0019
    1OPC    C4B69501  24.170  28.267   3.729  0.1245 -0.1067 -0.1951
    1OPC    NC369502   3.742  11.707   2.320  0.2671  0.1575 -0.0387
    1OPC    PO469503   3.973  11.866   2.665 -0.3159 -0.0289 -0.2022
    1OPC    GL169504   3.823  11.916   3.015 -0.2043  0.2381 -0.2675
    1OPC    GL269505   3.659  12.070   3.214  0.3086  0.1983  0.1176
    1OPC    C1B69506   3.500  12.504   3.458 -0.0036  0.2086 -0.1232
    1OPC    D2B69507   3.403  12.862   3.715 -0.0532  0.2973  0.1552
    1OPC    C3B69508   3.360  12.926   4.070  0.1596 -0.1989 -0.1348
    1OPC    C4B69509   3.460  12.854   4.451  0.1294 -0.1288  0.1221
    1OPC    NC369510   1.081  10.323   2.085 -0.2030  0.1035 -0.1126
    1OPC    PO469511   1.040  10.593   2.467 -0.5039  0.0845 -0.2183
    1OPC    GL169512   1.206  10.532   2.855  0.2386 -0.0754  0.1760
    1OPC    GL269513   1.035  10.486   3.130  0.1379 -0.1349  0.2254
    1OPC    C1B69514   1.005  10.537   3.606 -0.1142  0.0623  0.1170
    1OPC    D2B69515   1.011  10.508   4.014  0.2917  0.1101  0.1210
    1OPC    C3B69516   1.345  10.707   4.117 -0.1065  0.1679 -0.1051
    1OPC    C4B69517   1.484  10.652   4.521 -0.3002  0.0265  0.0672
    1OPC    NC369518   2.661  22.517   2.391 -0.2893 -0.1201 -0.2611
    1OPC    PO469519   2.505  22.040   2.407  0.0263 -0.2680  0.2990
    1OPC    GL169520   2.092  21.872   2.540  0.1103  0.3749 -0.0912
    1OPC    GL269521   1.959  21.913   2.827  0.0308 -0.1227 -0.0237
    1OPC    C1B69522   1.641  22.077   3.212  0.0488  0.1041 -0.3008
    1OPC    D2B69523   1.417  22.247   3.689  0.1891  0.2758 -0.1822
    1OPC    C3B69524   1.603  22.383   4.086  0.1207 -0.0266 -0.1434
    1OPC    C4B69525   2.109  22.245   4.264 -0.0564  0.1575 -0.0876
    1OPC    NC369526  24.297  11.105   2.205  0.1265  0.0921 -0.1167
    1OPC    PO469527  23.930  11.079   2.553 -0.0782 -0.0594  0.0416
    1OPC    GL169528  24.077  11.331   2.843 -0.2897 -0.0532 -0.1156
    1OPC    GL269529  23.987  11.328   3.121  0.1782 -0.0130 -0.0007
    1OPC    C1B69530  23.955  11.244   3.604  0.0469 -0.0355  0.0731
    1OPC    D2B69531  24.078  11.402   3.964  0.2846 -0.1516  0.0019
    1OPC    C3B69532  24.478  11.554   4.191 -0.0902 -0.2406 -0.2091
    1OPC    C4B69533  24.637  11.683   4.541 -0.0740 -0.2099 -0.0348
    1OPC    NC369534   9.030   2.779   2.687 -0.0458 -0.3167  0.0135
    1OPC    PO469535   8.678   2.561   2.756  0.2332 -0.0115 -0.0203
    1OPC    GL169536   8.895   2.679   3.193  0.6671  0.4386 -0.0952
    1OPC    GL269537   8.945   2.675   3.489  0.0061  0.2262  0.4242
    1OPC    C1B69538   9.068   2.667   3.982 -0.0152 -0.1931  0.2215
    1OPC    D2B69539   9.070   2.807   4.440 -0.3339 -0.1239 -0.2828
    1OPC    C3B69540   9.477   2.981   4.566  0.2502  0.0354 -0.0409
    1OPC    C4B69541   9.782   2.965   4.985  0.2912 -0.0379  0.0435
    1OPC    NC369542   5.120  25.204   2.188  0.4955  0.1068 -0.0897
    1OPC    PO469543   5.595  25.056   2.270  0.0597  0.2347  0.4853
    1OPC    GL169544   5.589  25.088   2.698 -0.2077  0.1533  0.0648
    1OPC    GL269545   5.786  25.036   2.892  0.1914  0.3179 -0.0248
    1OPC    C1B69546   5.804  24.955   3.350  0.0569  0.0548  0.0911
    1OPC    D2B69547   5.479  24.800   3.648  0.1159 -0.0052  0.0314
    1OPC    C3B69548   5.043  25.026   3.650 -0.0527 -0.0331 -0.0414
    1OPC    C4B69549   4.769  24.913   3.286  0.0622  0.0112  0.2031
    1OPC    NC369550  16.092   4.839   3.173 -0.1204  0.1174 -0.1214
    1OPC    PO469551  16.032   4.807   3.667  0.1290 -0.0411  0.1663
    1OPC    GL169552  16.243   4.678   4.004  0.0282 -0.0582  0.0457
    1OPC    GL269553  16.150   4.684   4.273 -0.0302 -0.3008 -0.0347
    1OPC    C1B69554  16.012   4.571   4.705  0.0525  0.1603  0.0176
    1OPC    D2B69555  16.186   4.367   4.999 -0.2043 -0.0844 -0.1001
    1OPC    C3B69556  16.000   4.404   5.440  0.0484  0.1408 -0.0729
    1OPC    C4B69557  15.921   4.719   5.750 -0.3612  0.0592  0.2559
    1OPC    NC369558  20.169  27.557   3.002  0.2255  0.0810 -0.0081
    1OPC    PO469559  19.700  27.773   3.111 -0.3116 -0.1969 -0.1945
    1OPC    GL169560  19.536  27.943   3.472 -0.1142  0.1176  0.1254
    1OPC    GL269561  19.323  27.811   3.718 -0.2726 -0.0774  0.2730
    1OPC    C1B69562  19.129  27.712   4.201  0.1363  0.1890  0.2819
    1OPC    D2B69563  19.382  27.485   4.422 -0.1575 -0.1758  0.2942
    1OPC    C3B69564  19.293  27.407   4.794  0.3664  0.1046  0.0562
    1OPC    C4B69565  19.436  27.714   5.160 -0.0315 -0.1553  0.4160
    1OPC    NC369566  25.454  11.779   1.441  0.2348 -0.4003  0.2109
    1OPC    PO469567  25.856  11.793   1.736  0.0498 -0.0070 -0.2032
    1OPC    GL169568  25.941  11.882   2.200 -0.0513 -0.2146 -0.1050
    1OPC    GL269569  25.905  11.737   2.470 -0.1640 -0.0684  0.1952
    1OPC    C1B69570  25.771  11.612   2.896  0.0621  0.1061  0.1866
    1OPC    D2B69571  25.481  11.888   3.183  0.0278 -0.0101  0.4329
    1OPC    C3B69572  25.218  11.658   3.440 -0.1692 -0.1505  0.2452
    1OPC    C4B69573  25.137  11.269   3.692 -0.1843  0.0341 -0.0415
    1OPC    NC369574  12.492   0.930   4.075  0.0581 -0.0695 -0.1474
    1OPC    PO469575  12.660   1.318   4.194 -0.0953 -0.1597 -0.1167
    1OPC    GL169576  12.357   1.277   4.452  0.2302 -0.1032 -0.0888
    1OPC    GL269577  12.152   1.011   4.519 -0.0330 -0.1950 -0.2863
    1OPC    C1B69578  12.031   0.836   4.856  0.2929 -0.1563  0.0681
    1OPC    D2B69579  11.910   0.978   5.256  0.3313  0.1360 -0.0077
    1OPC    C3B69580  11.868   0.681   5.547 -0.1402  0.1471  0.0183
    1OPC    C4B69581  11.542   0.581   5.858  0.0614 -0.2864 -0.2470
    1OPC    NC369582  20.375  27.246   3.469 -0.0605  0.0409 -0.2570
    1OPC    PO469583  20.589  26.934   3.309  0.0501  0.0114 -0.0781
    1OPC    GL169584  20.252  26.697   3.501  0.0194  0.1693 -0.2123
    1OPC    GL269585  20.217  26.701   3.785  0.1142 -0.0205  0.2585
    1OPC    C1B69586  20.030  26.595   4.187  0.0273 -0.2378 -0.0515
    1OPC    D2B69587  19.899  26.534   4.672 -0.3095 -0.0186 -0.1685
    1OPC    C3B69588  19.785  26.770   4.983 -0.1483  0.0724  0.0539
    1OPC    C4B69589  19.362  26.936   4.979  0.0606 -0.2191  0.5475
    1OPC    NC369590  20.197  22.818   2.227  0.0051  0.1129 -0.1404
    1OPC    PO469591  20.133  22.508   2.596  0.0372  0.0225 -0.0684
    1OPC    GL169592  20.127  22.413   2.990 -0.4573  0.0313  0.0438
    1OPC    GL269593  20.061  22.303   3.382 -0.0916  0.0426  0.0438
    1OPC    C1B69594  20.044  22.413   3.735  0.1069 -0.0611 -0.0616
    1OPC    D2B69595  20.129  22.284   4.118 -0.2492  0.0984 -0.1294
    1OPC    C3B69596  20.052  22.464   4.489  0.0868  0.4381 -0.0466
    1OPC    C4B69597  19.721  22.518   4.766 -0.1449  0.0301  0.0397
    1OPC    NC369598   8.336   4.888   3.228 -0.1136 -0.2497 -0.2207
    1OPC    PO469599   7.884   4.738   3.287  0.0063  0.0623  0.0299
    1OPC    GL169600   8.128   4.589   3.600 -0.1273  0.1814  0.1866
    1OPC    GL269601   8.415   4.751   3.769 -0.1040  0.1244 -0.0081
    1OPC    C1B69602   8.652   4.811   4.100 -0.3152 -0.0425 -0.1464
    1OPC    D2B69603   8.749   5.140   4.432  0.0638 -0.0049 -0.2148
    1OPC    C3B69604   8.441   5.144   4.749  0.2254  0.1980 -0.2741
    1OPC    C4B69605   8.375   4.901   5.045 -0.0168  0.2722 -0.0303
    1OPC    NC369606  10.050   0.272   3.522 -0.1412 -0.0479  0.3372
    1OPC    PO469607   9.947  -0.154   3.512 -0.0076  0.0064  0.0990
    1OPC    GL169608   9.613  -0.233   3.819  0.4233  0.0865  0.2924
    1OPC    GL269609   9.385  -0.090   3.945  0.1551  0.0739  0.2504
    1OPC    C1B69610   9.102   0.122   4.247 -0.1372 -0.1014 -0.1942
    1OPC    D2B69611   8.999  -0.166   4.649 -0.1333  0.0215 -0.2430
    1OPC    C3B69612   9.010  -0.318   5.158  0.1126 -0.2961 -0.0630
    1OPC    C4B69613   8.596  -0.289   5.343  0.1037 -0.2100  0.2345
    1OPC    NC369614  18.554   9.514   2.111 -0.4109  0.2082 -0.0024
    1OPC    PO469615  18.216   9.577   2.345  0.2404  0.0442 -0.2567
    1OPC    GL169616  18.205   9.552   2.773 -0.2544 -0.0305 -0.0994
    1OPC    GL269617  18.404   9.570   3.009  0.2129 -0.0474 -0.5014
    1OPC    C1B69618  18.444   9.796   3.320 -0.3960 -0.0646 -0.0535
    1OPC    D2B69619  18.531  10.106   3.736  0.2936 -0.2446  0.1775
    1OPC    C3B69620  18.270  10.194   4.139 -0.3012  0.0795  0.1885
    1OPC    C4B69621  18.170  10.223   4.569 -0.0679 -0.3075 -0.0097
    1OPC    NC369622  20.454   0.606   2.892 -0.2810 -0.2095  0.1113
    1OPC    PO469623  20.132   0.871   2.764 -0.0133 -0.0631 -0.4105
    1OPC    GL169624  20.262   0.921   3.221  0.0630 -0.2444 -0.0908
    1OPC    GL269625  20.200   0.836   3.544  0.0784  0.1205  0.1588
    1OPC    C1B69626  20.062   0.511   3.811  0.0069  0.0647 -0.0520
    1OPC    D2B69627  19.846   0.227   4.098 -0.0626 -0.0879 -0.5181
    1OPC    C3B69628  19.853   0.353   4.616 -0.2271 -0.0730  0.0409
    1OPC    C4B69629  19.745   0.411   5.076  0.0228 -0.0079  0.2028
    1OPC    NC369630  13.195   3.785   4.008  0.0551 -0.1106  0.0337
    1OPC    PO469631  13.254   3.375   3.890 -0.0210 -0.0256 -0.1147
    1OPC    GL169632  12.985   3.339   4.234  0.1491  0.0798  0.1345
    1OPC    GL269633  12.716   3.299   4.283 -0.0009 -0.3082  0.0921
    1OPC    C1B69634  12.505   3.445   4.608  0.1078  0.0142  0.1477
    1OPC    D2B69635  12.556   3.540   5.070  0.2199 -0.2491  0.0636
    1OPC    C3B69636  12.429   3.244   5.308 -0.0238 -0.0586  0.1525
    1OPC    C4B69637  12.660   3.072   5.632 -0.0733 -0.2191  0.2489
    1OPC    NC369638   0.172  17.026   1.820  0.2451  0.2264 -0.1085
    1OPC    PO469639   0.117  16.720   2.044 -0.0508  0.1202 -0.0407
    1OPC    GL169640  -0.010  16.592   2.400  0.0357  0.1703  0.1952
    1OPC    GL269641  -0.006  16.404   2.647  0.1197  0.0026 -0.0070
    1OPC    C1B69642  -0.021  16.369   3.127  0.1959 -0.0462 -0.0339
    1OPC    D2B69643  -0.283  16.321   3.458 -0.1888  0.0235  0.1711
    1OPC    C3B69644  -0.169  16.373   3.922  0.1307  0.1268 -0.0051
    1OPC    C4B69645  -0.011  16.420   4.430  0.2212 -0.0196 -0.2567
    1OPC    NC369646  27.027  20.393   2.818  0.2725 -0.1142  0.0291
    1OPC    PO469647  27.457  20.218   2.997 -0.3641  0.1072  0.1667
    1OPC    GL169648  27.209  20.315   3.233 -0.1473  0.1026 -0.0303
    1OPC    GL269649  27.114  20.328   3.575  0.1157  0.1522 -0.2145
    1OPC    C1B69650  27.314  20.408   3.911 -0.0818 -0.1570  0.2216
    1OPC    D2B69651  27.490  20.756   4.160  0.1152 -0.2066  0.0293
    1OPC    C3B69652  27.701  20.511   4.431  0.0324 -0.1270 -0.0040
    1OPC    C4B69653  27.993  20.268   4.435  0.0959 -0.2817 -0.2793
    1OPC    NC369654   6.533  21.552   2.069 -0.2663 -0.3478  0.3066
    1OPC    PO469655   6.606  21.745   2.434  0.1025  0.1714 -0.0630
    1OPC    GL169656   6.627  21.965   2.882  0.1687 -0.2229  0.1358
    1OPC    GL269657   6.914  22.109   3.003 -0.0623  0.0431 -0.0011
    1OPC    C1B69658   7.183  21.757   3.189  0.1025  0.2686 -0.1926
    1OPC    D2B69659   7.505  21.681   3.449  0.2029  0.1072 -0.2102
    1OPC    C3B69660   7.832  21.425   3.410  0.0371 -0.1561 -0.2527
    1OPC    C4B69661   8.103  21.235   3.605 -0.1236  0.4003 -0.1100
    1OPC    NC369662   4.663  28.627   3.313 -0.1337 -0.0354  0.2279
    1OPC    PO469663   4.795  29.156   3.335  0.2395  0.1243 -0.1325
    1OPC    GL169664   4.539  29.038   3.616 -0.2718 -0.0245 -0.2114
    1OPC    GL269665   4.510  29.110   3.991  0.0184 -0.0406  0.2897
    1OPC    C1B69666   4.423  29.327   4.415 -0.0598 -0.1254  0.0099
    1OPC    D2B69667   4.329  29.449   4.903  0.0052 -0.0817 -0.2911
    1OPC    C3B69668   3.979  29.320   5.138 -0.1319  0.0835 -0.1629
    1OPC    C4B69669   3.508  29.329   5.360  0.0400 -0.0580 -0.0802
    1OPC    NC369670  16.681   3.698   3.907  0.1996  0.2100  0.1855
    1OPC    PO469671  16.361   3.563   3.562 -0.0079 -0.2406 -0.2046
    1OPC    GL169672  16.724   3.316   3.504 -0.0247  0.0303  0.2057
    1OPC    GL269673  16.861   3.214   3.773 -0.0623  0.0832  0.2018
    1OPC    C1B69674  16.894   3.182   4.245  0.2561  0.1065  0.1176
    1OPC    D2B69675  16.980   3.302   4.550  0.1854 -0.0691  0.3438
    1OPC    C3B69676  17.139   3.628   4.798 -0.0388 -0.0659  0.1390
    1OPC    C4B69677  17.387   3.990   4.628  0.0027 -0.2617 -0.0997
    1OPC    NC369678   7.154   1.650   2.495 -0.4075 -0.1441 -0.1782
    1OPC    PO469679   6.811   1.639   2.870  0.4660 -0.1128 -0.0561
    1OPC    GL169680   6.784   1.615   3.268  0.2012 -0.3011  0.2095
    1OPC    GL269681   6.744   1.722   3.599  0.0627  0.1311 -0.0389
    1OPC    C1B69682   6.538   1.735   3.943  0.3717  0.2200 -0.1245
    1OPC    D2B69683   6.456   1.875   4.322 -0.1907  0.0805  0.1640
    1OPC    C3B69684   6.110   1.524   4.458  0.0148 -0.0614 -0.1038
    1OPC    C4B69685   5.771   1.244   4.632  0.1917  0.2116  0.1726
    1OPC    NC369686  17.785  10.150   2.872  0.3486 -0.0791  0.3369
    1OPC    PO469687  17.650  10.410   2.504  0.2892 -0.1541  0.2876
    1OPC    GL169688  17.307  10.337   2.874 -0.2164 -0.0787 -0.3430
    1OPC    GL269689  17.370  10.269   3.197  0.0227 -0.1537  0.0360
    1OPC    C1B69690  17.514  10.253   3.722  0.5174  0.2538  0.2147
    1OPC    D2B69691  17.419  10.515   4.122 -0.2295 -0.3379 -0.1646
    1OPC    C3B69692  17.028  10.539   4.292  0.1469  0.2496  0.0719
    1OPC    C4B69693  16.727  10.462   3.985 -0.0249 -0.0813 -0.0861
    1OPC    NC369694   3.867  11.163   2.863 -0.1122  0.1558  0.2052
    1OPC    PO469695   4.221  10.989   2.740 -0.1987  0.1713 -0.0391
    1OPC    GL169696   4.534  11.081   3.137  0.1232  0.0105 -0.0683
    1OPC    GL269697   4.496  11.285   3.433  0.1158 -0.0286  0.1144
    1OPC    C1B69698   4.592  11.207   3.780  0.0633 -0.0155 -0.0584
    1OPC    D2B69699   4.553  11.311   4.207  0.0724 -0.2466 -0.0082
    1OPC    C3B69700   4.587  10.967   4.533 -0.3113  0.0550 -0.1807
    1OPC    C4B69701   4.773  10.538   4.490  0.4335 -0.0317 -0.1124
    1OPC    NC369702  10.971   2.215   3.546  0.0390 -0.4289  0.3309
    1OPC    PO469703  10.629   2.366   3.243 -0.0722  0.0051 -0.0373
    1OPC    GL169704  10.499   2.283   3.671 -0.2892  0.1346  0.3096
    1OPC    GL269705  10.655   2.263   3.898 -0.0506  0.0970 -0.1494
    1OPC    C1B69706  10.665   2.227   4.271  0.0682  0.0083  0.1802
    1OPC    D2B69707  10.839   2.444   4.519 -0.0979  0.0792  0.1287
    1OPC    C3B69708  10.952   2.416   5.090  0.1926  0.3371 -0.0320
    1OPC    C4B69709  10.958   2.052   5.429  0.1605  0.0565  0.0250
    1OPC    NC369710  25.821  25.926   3.440 -0.0092 -0.4126  0.2480
    1OPC    PO469711  25.549  26.332   3.454 -0.1419 -0.2576  0.0357
    1OPC    GL169712  25.155  26.384   3.718  0.0601 -0.0014 -0.1784
    1OPC    GL269713  24.972  26.334   4.017  0.1237 -0.0951 -0.1928
    1OPC    C1B69714  25.128  26.259   4.476 -0.3538  0.1609  0.1655
    1OPC    D2B69715  24.888  26.085   4.910 -0.2556  0.1260  0.1470
    1OPC    C3B69716  25.004  26.115   5.331 -0.0038  0.2425 -0.0747
    1OPC    C4B69717  25.382  25.865   5.521  0.1369 -0.0391  0.0506
    1OPC    NC369718  17.685   6.233   3.307 -0.2097  0.1465 -0.0170
    1OPC    PO469719  17.330   6.019   3.472  0.1867 -0.1561 -0.0587
    1OPC    GL169720  17.489   5.864   3.929  0.1749 -0.2162  0.4082
    1OPC    GL269721  17.655   5.968   4.319 -0.2137  0.2084 -0.3360
    1OPC    C1B69722  18.106   5.938   4.564  0.1812  0.2382  0.0362
    1OPC    D2B69723  18.323   5.626   4.772 -0.2660  0.1095  0.1294
    1OPC    C3B69724  18.370   5.175   4.667  0.0238 -0.0449  0.1841
    1OPC    C4B69725  18.537   4.694   4.606 -0.3929  0.0817  0.3346
    1OPC    NC369726  26.783  23.630   2.833 -0.0446  0.1450 -0.1350
    1OPC    PO469727  26.424  23.364   3.106  0.1155 -0.0368 -0.3020
    1OPC    GL169728  26.586  23.402   3.495 -0.1378  0.1470  0.0407
    1OPC    GL269729  26.790  23.301   3.837  0.0932 -0.0665 -0.0101
    1OPC    C1B69730  26.963  23.319   4.156 -0.2939 -0.0406 -0.0255
    1OPC    D2B69731  27.231  23.532   4.477 -0.3410 -0.3552  0.1201
    1OPC    C3B69732  27.179  23.801   4.835  0.1343  0.0969 -0.1356
    1OPC    C4B69733  27.119  24.010   5.216 -0.0953  0.0577 -0.1799
    1OPC    NC369734  16.421  28.623   3.281  0.2331  0.0721 -0.0256
    1OPC    PO469735  16.181  28.882   3.535 -0.0418  0.2080  0.5699
    1OPC    GL169736  16.426  28.580   3.784  0.1446  0.3568  0.1412
    1OPC    GL269737  16.397  28.453   4.096  0.3098 -0.0681 -0.1052
    1OPC    C1B69738  16.580  28.339   4.476  0.2518 -0.1874 -0.1631
    1OPC    D2B69739  16.945  28.358   4.700  0.1575  0.0213  0.0624
    1OPC    C3B69740  16.962  28.626   5.107 -0.0820  0.1523  0.1140
    1OPC    C4B69741  16.991  28.800   5.492 -0.0282  0.0058 -0.0553
    1OPC    NC369742  27.960  10.648   2.025 -0.0016  0.0844  0.1186
    1OPC    PO469743  27.585  10.649   2.348  0.1156  0.0260 -0.0724
    1OPC    GL169744  27.374  10.637   2.773 -0.2826 -0.1053 -0.3017
    1OPC    GL269745  27.381  10.505   3.097 -0.0249  0.1571  0.3186
    1OPC    C1B69746  27.248  10.672   3.606  0.3365  0.0077  0.1080
    1OPC    D2B69747  27.350  10.817   4.017 -0.0395 -0.0288  0.0692
    1OPC    C3B69748  27.580  11.100   4.211 -0.0125 -0.0608 -0.0321
    1OPC    C4B69749  27.837  11.166   4.560 -0.3309 -0.0483  0.0016
    1OPC    NC369750  21.615   9.466   2.545 -0.2054 -0.0155 -0.1298
    1OPC    PO469751  21.680   9.128   2.923  0.0699  0.1894  0.1236
    1OPC    GL169752  21.517   8.990   3.258  0.0367 -0.0702  0.0725
    1OPC    GL269753  21.385   9.112   3.517  0.2523 -0.2645  0.0272
    1OPC    C1B69754  21.414   9.404   3.816 -0.0084  0.2324  0.4672
    1OPC    D2B69755  21.211   9.442   4.238  0.1673  0.0555  0.1148
    1OPC    C3B69756  21.589   9.603   4.539  0.1394 -0.0103 -0.2795
    1OPC    C4B69757  21.943   9.601   4.797 -0.2197  0.3034  0.0490
    1OPC    NC369758  22.158  28.338   2.570 -0.1247  0.3557 -0.2667
    1OPC    PO469759  21.810  28.439   2.831  0.1496  0.1285  0.2296
    1OPC    GL169760  21.549  28.426   3.181  0.1747  0.2065 -0.2984
    1OPC    GL269761  21.498  28.389   3.501 -0.2252 -0.3437 -0.0969
    1OPC    C1B69762  21.472  28.530   3.925  0.1099  0.1300 -0.1844
    1OPC    D2B69763  21.418  28.398   4.385 -0.4253  0.1388 -0.1979
    1OPC    C3B69764  21.713  28.266   4.726  0.1200 -0.1949 -0.2496
    1OPC    C4B69765  22.112  28.101   4.902  0.1967 -0.1061 -0.0643
    1OPC    NC369766  17.016  23.109   2.758 -0.3254 -0.5176  0.1139
    1OPC    PO469767  16.900  23.519   2.947 -0.2122  0.0634  0.0242
    1OPC    GL169768  16.915  23.662   3.352  0.0519 -0.0682 -0.3966
    1OPC    GL269769  16.899  23.827   3.522  0.0062 -0.1166 -0.1687
    1OPC    C1B69770  17.174  23.795   3.894  0.1123 -0.0876 -0.0568
    1OPC    D2B69771  17.417  23.753   4.158 -0.1394  0.2098 -0.2294
    1OPC    C3B69772  17.484  23.396   4.423 -0.2546  0.1454  0.1821
    1OPC    C4B69773  17.346  23.016   4.618 -0.1333  0.0617 -0.0038
    1OPC    NC369774  12.322  21.992   2.910 -0.3238 -0.1798  0.1730
    1OPC    PO469775  12.146  21.777   2.580 -0.0002 -0.2905  0.0598
    1OPC    GL169776  12.060  21.596   2.922  0.0393  0.1694 -0.2197
    1OPC    GL269777  12.240  21.567   3.218  0.1606  0.0280 -0.0718
    1OPC    C1B69778  12.450  21.632   3.507  0.0059  0.1988  0.0345
    1OPC    D2B69779  12.416  21.844   3.886 -0.0958 -0.0042  0.1428
    1OPC    C3B69780  12.164  22.018   4.076 -0.0986 -0.0227 -0.0067
    1OPC    C4B69781  12.131  21.999   4.518  0.1720 -0.1112  0.1333
    1OPC    NC369782  26.615  12.361   2.243 -0.0259  0.1059 -0.0324
    1OPC    PO469783  26.817  11.927   2.334  0.2164 -0.2557 -0.1225
    1OPC    GL169784  26.416  11.896   2.451  0.2722  0.2080  0.1752
    1OPC    GL269785  26.306  11.659   2.711 -0.3353 -0.0926 -0.1658
    1OPC    C1B69786  26.400  11.387   3.011 -0.1803  0.1970 -0.0249
    1OPC    D2B69787  26.260  11.270   3.459  0.2330 -0.1929  0.2460
    1OPC    C3B69788  26.359  11.064   3.830 -0.1715  0.0877  0.1422
    1OPC    C4B69789  26.669  11.281   4.131  0.2827 -0.2441 -0.1992
    1OPC    NC369790  21.056  27.056   3.092  0.3397 -0.1218  0.0581
    1OPC    PO469791  21.235  27.473   3.173  0.3108  0.0661 -0.2118
    1OPC    GL169792  20.961  27.434   3.550  0.0973  0.0493 -0.1497
    1OPC    GL269793  20.900  27.516   3.981 -0.1829  0.0786 -0.2884
    1OPC    C1B69794  20.964  27.784   4.284  0.0499 -0.0361  0.1771
    1OPC    D2B69795  21.014  27.816   4.673 -0.1530 -0.1640 -0.2390
    1OPC    C3B69796  21.446  27.808   4.849 -0.0189  0.4374 -0.0528
    1OPC    C4B69797  21.703  28.062   5.223  0.2232  0.1934  0.1564
    1OPC    NC369798  15.419   9.523   2.660 -0.1906  0.0917  0.0917
    1OPC    PO469799  15.409   9.109   2.768  0.0400 -0.0928  0.0750
    1OPC    GL169800  15.354   9.245   3.185 -0.2833  0.0459 -0.1523
    1OPC    GL269801  15.490   9.190   3.435  0.0079 -0.1572  0.0403
    1OPC    C1B69802  15.507   9.139   3.857 -0.0002 -0.0890  0.0444
    1OPC    D2B69803  15.522   9.194   4.329 -0.1951  0.1093 -0.1376
    1OPC    C3B69804  15.640   9.502   4.582 -0.2688 -0.0505  0.0432
    1OPC    C4B69805  15.722   9.730   4.962 -0.1797 -0.1832 -0.0897
    1OPC    NC369806   0.684  11.664   1.917 -0.2550  0.1469 -0.2541
    1OPC    PO469807   0.345  11.448   2.206 -0.1193 -0.1792  0.1757
    1OPC    GL169808   0.495  11.393   2.706  0.2005  0.0651  0.0888
    1OPC    GL269809   0.458  11.165   3.021 -0.1331  0.4578  0.2909
    1OPC    C1B69810   0.454  10.973   3.368 -0.2021 -0.0739 -0.1363
    1OPC    D2B69811   0.634  10.852   3.748  0.1546 -0.1046 -0.1661
    1OPC    C3B69812   0.934  10.985   4.011  0.1696 -0.1055  0.2823
    1OPC    C4B69813   1.276  11.226   4.253 -0.0057 -0.2373 -0.0447
    1OPC    NC369814  28.699  12.294   2.055  0.1225  0.1450 -0.1995
    1OPC    PO469815  28.368  12.082   2.414 -0.1954 -0.0800  0.0527
    1OPC    GL169816  28.116  11.902   2.790 -0.1634 -0.1378  0.1458
    1OPC    GL269817  27.940  11.863   3.126 -0.0055 -0.0051 -0.0269
    1OPC    C1B69818  27.674  11.863   3.579  0.0247  0.0180 -0.3847
    1OPC    D2B69819  27.463  12.076   3.924 -0.1146 -0.2726  0.0654
    1OPC    C3B69820  27.334  11.835   4.321 -0.2816  0.0544  0.0399
    1OPC    C4B69821  27.498  11.503   4.482  0.3050  0.0921  0.0585
    1OPC    NC369822  19.573  25.047   3.026  0.1865 -0.0877 -0.1253
    1OPC    PO469823  19.770  25.345   3.207  0.3019  0.0429  0.1870
    1OPC    GL169824  19.878  25.181   3.607  0.1882  0.0494 -0.2161
    1OPC    GL269825  19.942  25.310   3.760 -0.0715 -0.0276  0.3686
    1OPC    C1B69826  19.999  25.653   3.947 -0.4173 -0.2911 -0.1212
    1OPC    D2B69827  20.123  25.947   4.038  0.1474  0.1642  0.0247
    1OPC    C3B69828  19.740  26.180   4.195  0.1061  0.0283  0.3469
    1OPC    C4B69829  19.435  26.514   4.221  0.1217  0.1346 -0.0861
    1OPC    NC369830  19.198  20.151   3.352  0.0699  0.2802 -0.1739
    1OPC    PO469831  18.990  20.327   3.041 -0.0538 -0.1753 -0.2028
    1OPC    GL169832  18.784  20.496   3.307 -0.0725  0.0695  0.0100
    1OPC    GL269833  18.637  20.579   3.531  0.2319  0.1307 -0.3461
    1OPC    C1B69834  18.836  20.842   3.849 -0.1590  0.1169  0.3584
    1OPC    D2B69835  18.775  20.808   4.292  0.2184 -0.0322  0.2585
    1OPC    C3B69836  18.520  20.585   4.450  0.2525 -0.1088  0.1626
    1OPC    C4B69837  18.185  20.374   4.665 -0.0999 -0.0611  0.2036
    1OPC    NC369838   7.077  29.242   3.505 -0.5642 -0.3826  0.1965
    1OPC    PO469839   7.453  29.026   3.238 -0.1419  0.0645  0.2226
    1OPC    GL169840   7.818  29.035   3.329  0.0576  0.2945  0.1964
    1OPC    GL269841   7.976  29.149   3.531  0.1315 -0.2163 -0.0121
    1OPC    C1B69842   8.030  28.941   3.921 -0.0004 -0.0371 -0.0890
    1OPC    D2B69843   7.624  28.846   4.233  0.0782  0.0663 -0.2514
    1OPC    C3B69844   7.451  28.474   4.141  0.1505  0.1607 -0.1584
    1OPC    C4B69845   7.184  28.141   4.252 -0.2094  0.1008 -0.2529
    1OPC    NC369846  10.745   6.001   3.111  0.1487  0.1056  0.0179
    1OPC    PO469847  10.258   5.879   3.033  0.0161  0.1064  0.2400
    1OPC    GL169848  10.406   5.798   3.482  0.3011  0.0885  0.0436
    1OPC    GL269849  10.444   5.829   3.799 -0.0176  0.0583 -0.2020
    1OPC    C1B69850  10.468   5.733   4.286 -0.2038 -0.1428  0.3507
    1OPC    D2B69851  10.631   5.676   4.637  0.2063 -0.1039 -0.0642
    1OPC    C3B69852  10.489   5.528   4.985  0.0697 -0.0872 -0.0686
    1OPC    C4B69853  10.663   5.309   5.377 -0.0759 -0.0544  0.1151
    1OPC    NC369854  21.436  24.127   3.045  0.0583  0.0634 -0.1042
    1OPC    PO469855  21.816  24.438   2.989  0.1699  0.4027  0.2205
    1OPC    GL169856  21.587  24.512   3.393  0.4409 -0.0591 -0.0501
    1OPC    GL269857  21.423  24.366   3.725 -0.2112  0.0672 -0.1912
    1OPC    C1B69858  21.451  24.296   4.099  0.0461  0.1694 -0.0289
    1OPC    D2B69859  21.165  24.237   4.463 -0.0774 -0.1602  0.0349
    1OPC    C3B69860  21.174  23.794   4.609 -0.1490  0.3628  0.0447
    1OPC    C4B69861  21.280  23.597   4.950  0.3429  0.1251  0.0147
    1OPC    NC369862  23.392  23.573   3.074 -0.0185 -0.0481 -0.1075
    1OPC    PO469863  23.589  23.189   3.227  0.1129 -0.1053  0.0516
    1OPC    GL169864  23.492  23.234   3.586  0.0251  0.0390  0.2008
    1OPC    GL269865  23.540  23.303   3.876 -0.2185 -0.1766 -0.0586
    1OPC    C1B69866  23.440  23.519   4.125 -0.2961  0.3642  0.1709
    1OPC    D2B69867  23.270  23.480   4.602  0.0683  0.2118  0.4572
    1OPC    C3B69868  22.873  23.557   4.788 -0.1968 -0.1680 -0.1550
    1OPC    C4B69869  22.394  23.648   4.933  0.1495  0.0966 -0.0220
    1OPC    NC369870   2.114   2.129   3.136  0.0209 -0.1675 -0.1335
    1OPC    PO469871   2.476   1.940   2.952 -0.3470  0.3605 -0.0801
    1OPC    GL169872   2.589   2.341   3.081  0.1804  0.1912 -0.2726
    1OPC    GL269873   2.500   2.565   3.287 -0.3674 -0.2843  0.1161
    1OPC    C1B69874   2.500   2.664   3.657  0.2995  0.0493 -0.6397
    1OPC    D2B69875   2.746   2.672   4.049 -0.2193  0.2682  0.1780
    1OPC    C3B69876   2.846   2.415   4.315  0.1277 -0.3918 -0.2743
    1OPC    C4B69877   2.486   2.284   4.589  0.2960 -0.1697 -0.0585
    1OPC    NC369878  28.819  17.752   2.404  0.1677  0.1456  0.1351
    1OPC    PO469879  28.467  17.609   2.635  0.2191  0.0246 -0.1985
    1OPC    GL169880  28.745  17.453   2.943  0.2854  0.1702 -0.1579
    1OPC    GL269881  28.829  17.206   3.058  0.2151 -0.0442 -0.2073
    1OPC    C1B69882  29.062  16.899   3.249  0.0253 -0.1771  0.1484
    1OPC    D2B69883  29.293  16.779   3.624 -0.2455  0.1864  0.2223
    1OPC    C3B69884  29.371  16.766   4.077 -0.1085  0.0646 -0.1445
    1OPC    C4B69885  29.466  17.016   4.413 -0.2596 -0.2874 -0.1190
    1OPC    NC369886   1.357   9.361   1.933 -0.1136 -0.1266 -0.1030
    1OPC    PO469887   1.378   9.368   2.445 -0.1031 -0.0293  0.0201
    1OPC    GL169888   1.223   9.115   2.781 -0.1553 -0.0882 -0.3284
    1OPC    GL269889   1.333   9.028   3.132 -0.1491  0.0046 -0.4339
    1OPC    C1B69890   1.444   9.231   3.589 -0.1690  0.0457  0.0801
    1OPC    D2B69891   1.606   9.417   3.988  0.1605 -0.0541  0.0208
    1OPC    C3B69892   1.876   9.203   4.182 -0.2461  0.0849  0.0284
    1OPC    C4B69893   1.973   8.814   4.575 -0.4109  0.1065  0.0454
    1OPC    NC369894  19.661   6.013   3.321  0.0678  0.1732 -0.0184
    1OPC    PO469895  19.438   5.556   3.118  0.1951 -0.3069  0.1349
    1OPC    GL169896  19.508   5.132   3.417 -0.1364 -0.4527  0.0879
    1OPC    GL269897  19.575   5.033   3.705  0.0333  0.0236  0.0413
    1OPC    C1B69898  19.534   4.842   4.066 -0.1769  0.4238  0.1933
    1OPC    D2B69899  19.756   4.665   4.378  0.3060  0.1176  0.4406
    1OPC    C3B69900  20.076   4.861   4.492  0.0576 -0.3285 -0.1291
    1OPC    C4B69901  20.364   5.152   4.711  0.1601  0.0453  0.0752
    1OPC    NC369902   0.661  21.800   2.594 -0.4634  0.0391 -0.1112
    1OPC    PO469903   0.266  21.569   2.651  0.0150  0.1487  0.0068
    1OPC    GL169904  -0.233  21.674   2.700  0.1964 -0.0369 -0.3111
    1OPC    GL269905  -0.451  21.757   2.967 -0.0042 -0.3827  0.0521
    1OPC    C1B69906  -0.498  21.606   3.437  0.0041  0.0671 -0.0147
    1OPC    D2B69907  -0.500  21.661   3.866 -0.1776 -0.0099  0.3865
    1OPC    C3B69908  -0.332  21.287   4.161  0.2454  0.0255 -0.4849
    1OPC    C4B69909  -0.039  21.149   4.606  0.1594  0.1603 -0.0929
    1OPC    NC369910  21.655   0.570   2.302 -0.1080 -0.0123  0.0689
    1OPC    PO469911  21.610   0.498   2.785  0.1805 -0.0985 -0.1349
    1OPC    GL169912  21.827   0.374   3.069  0.1261  0.0337 -0.0080
    1OPC    GL269913  21.818   0.379   3.407 -0.4513  0.0598 -0.1530
    1OPC    C1B69914  22.060   0.664   3.713  0.2000 -0.0452  0.1935
    1OPC    D2B69915  22.230   0.924   3.939 -0.1519 -0.0503  0.0280
    1OPC    C3B69916  22.269   1.032   4.324 -0.3359 -0.2594  0.1164
    1OPC    C4B69917  22.319   0.911   4.702  0.2149 -0.2264 -0.1915
    1OPC    NC369918  23.445  10.863   2.412 -0.1906  0.0529  0.4283
    1OPC    PO469919  23.122  10.987   2.651  0.1648  0.0448  0.3393
    1OPC    GL169920  23.101  10.878   3.099 -0.0375 -0.4178 -0.2533
    1OPC    GL269921  23.130  10.660   3.236 -0.3633  0.1123  0.0546
    1OPC    C1B69922  23.025  10.756   3.626 -0.1814 -0.2103 -0.3164
    1OPC    D2B69923  22.946  10.713   4.050 -0.1231 -0.4511 -0.1442
    1OPC    C3B69924  22.646  11.023   4.239 -0.0960  0.0599  0.0554
    1OPC    C4B69925  22.725  11.330   4.580 -0.3130 -0.1274 -0.2042
    1OPC    NC369926  10.961   1.320   3.367  0.0784 -0.2346  0.0141
    1OPC    PO469927  11.206   1.759   3.353  0.0675  0.3007 -0.1417
    1OPC    GL169928  11.104   1.748   3.749 -0.2747  0.0136  0.1064
    1OPC    GL269929  10.984   1.906   3.998  0.2009  0.2099 -0.1198
    1OPC    C1B69930  10.967   1.936   4.549 -0.0028 -0.0310 -0.0874
    1OPC    D2B69931  10.599   2.120   4.877  0.3091 -0.0388  0.2603
    1OPC    C3B69932  10.511   2.012   5.326  0.1328  0.1482 -0.1121
    1OPC    C4B69933  10.594   1.896   5.806  0.0297 -0.3833 -0.2237
    1OPC    NC369934  28.874  18.607   2.542 -0.0652 -0.0072 -0.0290
    1OPC    PO469935  28.802  18.251   2.253  0.1165 -0.0239  0.0211
    1OPC    GL169936  28.556  18.151   2.731  0.1664  0.4591 -0.0556
    1OPC    GL269937  28.770  17.995   3.021  0.4220 -0.0799 -0.1975
    1OPC    C1B69938  28.863  18.206   3.389  0.0413  0.0285 -0.3484
    1OPC    D2B69939  28.835  17.970   3.827 -0.0134 -0.2909 -0.2638
    1OPC    C3B69940  28.670  18.257   4.165  0.3320  0.1651  0.0777
    1OPC    C4B69941  28.882  18.648   4.356  0.3463 -0.3226 -0.1943
    1OPC    NC369942  27.597  22.208   2.387  0.1938 -0.0498  0.0673
    1OPC    PO469943  27.444  22.173   2.719 -0.1730 -0.0326 -0.0854
    1OPC    GL169944  27.290  21.840   2.883 -0.1182  0.2235 -0.3459
    1OPC    GL269945  27.327  21.662   3.139  0.3323  0.0642  0.2560
    1OPC    C1B69946  27.665  21.531   3.488 -0.2335  0.1713  0.0450
    1OPC    D2B69947  28.009  21.538   3.668 -0.1788  0.1337  0.1781
    1OPC    C3B69948  28.055  21.213   3.852 -0.0424  0.0458  0.0077
    1OPC    C4B69949  28.476  21.116   4.133 -0.0963  0.0373  0.2357
    1OPC    NC369950   8.384   7.834   3.092 -0.3736 -0.2115  0.1996
    1OPC    PO469951   8.660   7.841   2.700 -0.0237  0.4736  0.1884
    1OPC    GL169952   8.924   7.647   3.037 -0.2131 -0.0580  0.0959
    1OPC    GL269953   8.901   7.618   3.315 -0.2554  0.0875  0.2642
    1OPC    C1B69954   8.915   7.761   3.693  0.0519 -0.2859 -0.0256
    1OPC    D2B69955   8.860   7.745   4.046 -0.1313 -0.0303 -0.0858
    1OPC    C3B69956   9.077   7.398   4.302 -0.0675  0.0619  0.0984
    1OPC    C4B69957   8.938   7.277   4.699 -0.0382 -0.0849  0.2246
    1OPC    NC369958  18.933   0.755   2.671 -0.0411  0.4978 -0.0524
    1OPC    PO469959  19.267   0.722   2.615  0.2263  0.0648 -0.2857
    1OPC    GL169960  19.120   0.977   3.036 -0.0311  0.3912  0.2950
    1OPC    GL269961  19.266   1.027   3.297 -0.1233  0.0423 -0.0531
    1OPC    C1B69962  19.235   1.228   3.735 -0.4191 -0.0895  0.0091
    1OPC    D2B69963  19.538   1.257   4.076 -0.1303 -0.0895 -0.0230
    1OPC    C3B69964  19.564   1.591   4.388 -0.0192 -0.1896  0.0375
    1OPC    C4B69965  19.591   1.738   4.721  0.0630 -0.1723 -0.0638
    1OPC    NC369966  27.102  28.839   2.791 -0.1226  0.1768  0.3178
    1OPC    PO469967  26.619  28.714   2.821  0.0091 -0.0377  0.0884
    1OPC    GL169968  26.812  28.569   3.146  0.1903  0.1913  0.0933
    1OPC    GL269969  26.751  28.411   3.432 -0.0096 -0.0606 -0.1245
    1OPC    C1B69970  26.760  28.248   3.817 -0.1135  0.1472 -0.1638
    1OPC    D2B69971  26.590  27.947   4.145  0.0796  0.1974 -0.0251
    1OPC    C3B69972  26.924  27.821   4.535 -0.0216  0.1765  0.2407
    1OPC    C4B69973  27.076  27.548   4.783  0.1171  0.0107 -0.1661
    1OPC    NC369974  23.322  15.784   2.075 -0.0717  0.0065  0.0507
    1OPC    PO469975  23.633  15.360   2.286 -0.2219 -0.1189 -0.0039
    1OPC    GL169976  23.942  15.409   2.605 -0.1605  0.1526 -0.2564
    1OPC    GL269977  24.099  15.401   2.946 -0.2204  0.0775  0.0161
    1OPC    C1B69978  23.993  15.393   3.372  0.2211  0.0686 -0.0764
    1OPC    D2B69979  23.949  15.458   3.782  0.0804  0.0061 -0.0952
    1OPC    C3B69980  23.847  15.077   3.906  0.2369  0.3197 -0.1576
    1OPC    C4B69981  23.405  14.828   3.893  0.1682  0.0374  0.0430
    1OPC    NC369982   8.292  18.968   2.632  0.0311  0.0728 -0.2831
    1OPC    PO469983   8.013  18.879   2.192 -0.1702  0.0914  0.0374
    1OPC    GL169984   7.884  18.572   2.640 -0.0140  0.0147 -0.1501
    1OPC    GL269985   7.839  18.373   2.995 -0.1500  0.0480  0.1425
    1OPC    C1B69986   7.886  18.128   3.343 -0.1106 -0.0672  0.2620
    1OPC    D2B69987   7.715  17.968   3.726  0.0868 -0.1650 -0.1040
    1OPC    C3B69988   7.750  17.665   4.008  0.2424  0.0742 -0.1689
    1OPC    C4B69989   7.928  17.318   4.330 -0.0954  0.1829 -0.0654
    1OPC    NC369990   2.945  28.671   2.621  0.0316 -0.1519  0.0984
    1OPC    PO469991   3.295  28.969   2.567 -0.2418  0.0715  0.0901
    1OPC    GL169992   3.198  29.262   2.900  0.0366 -0.3145  0.2168
    1OPC    GL269993   3.095  29.322   3.271  0.1135 -0.1955 -0.0254
    1OPC    C1B69994   2.773  29.070   3.548  0.3949  0.1033 -0.0186
    1OPC    D2B69995   2.457  28.891   3.800  0.1807 -0.0431 -0.0245
    1OPC    C3B69996   2.322  29.094   4.219 -0.4804 -0.1721 -0.2977
    1OPC    C4B69997   1.955  29.126   4.385 -0.2291  0.2243 -0.1753
    1OPC    NC369998  23.268   0.963   2.638 -0.6073  0.0808  0.2488
    1OPC    PO469999  23.408   0.493   2.648 -0.2434  0.0732 -0.0339
    1OPC    GL170000  23.710   0.608   2.860 -0.1462  0.0607 -0.2016
    1OPC    GL270001  23.991   0.658   3.086 -0.0199 -0.2108 -0.0618
    1OPC    C1B70002  23.888   0.756   3.438 -0.1860 -0.0543 -0.1531
    1OPC    D2B70003  23.854   0.919   3.844  0.1067 -0.0087 -0.0031
    1OPC    C3B70004  23.540   1.188   4.080 -0.0313 -0.0137  0.0570
    1OPC    C4B70005  23.304   1.595   4.170  0.0452  0.1478  0.2198
    1OPC    NC370006   5.072  24.955   2.596 -0.0281 -0.2850  0.0057
    1OPC    PO470007   5.211  25.445   2.624  0.1712  0.0803  0.1011
    1OPC    GL170008   5.270  25.349   2.944 -0.1453  0.1480  0.0258
    1OPC    GL270009   5.202  25.071   3.106  0.0729 -0.0479 -0.3048
    1OPC    C1B70010   5.368  24.598   3.174 -0.0486  0.1430 -0.1154
    1OPC    D2B70011   5.479  24.121   3.221  0.1094 -0.0002  0.0353
    1OPC    C3B70012   5.124  24.026   3.366 -0.0607 -0.2953  0.1374
    1OPC    C4B70013   4.641  24.058   3.556 -0.0799 -0.1027 -0.1935
    1OPC    NC370014   4.605   0.593   3.259 -0.3610 -0.0502 -0.0908
    1OPC    PO470015   4.946   0.304   3.114  0.0346  0.2236 -0.0042
    1OPC    GL170016   5.014   0.176   3.597  0.1266 -0.0966 -0.2553
    1OPC    GL270017   4.921  -0.035   3.791 -0.2858  0.1332 -0.0219
    1OPC    C1B70018   5.176  -0.287   4.113  0.1192 -0.1296 -0.1227
    1OPC    D2B70019   5.229  -0.323   4.576  0.0887 -0.0875 -0.0809
    1OPC    C3B70020   5.081  -0.272   5.011  0.1173 -0.0419 -0.0469
    1OPC    C4B70021   4.698  -0.077   5.243 -0.0530  0.3233 -0.1693
    1OPC    NC370022  29.208  15.116   1.820 -0.3085 -0.0497 -0.1307
    1OPC    PO470023  29.471  15.061   2.160 -0.4479  0.2362 -0.2671
    1OPC    GL170024  29.554  15.178   2.593 -0.3313  0.1739  0.1630
    1OPC    GL270025  29.498  14.982   2.808 -0.0053  0.0024  0.2423
    1OPC    C1B70026  29.585  14.612   3.060 -0.0389 -0.1978  0.0822
    1OPC    D2B70027  29.556  14.368   3.492 -0.0254  0.0719 -0.0433
    1OPC    C3B70028  29.348  14.313   3.860  0.1005  0.2372  0.3670
    1OPC    C4B70029  29.250  14.694   4.122 -0.3653 -0.4332  0.2433
    1OPC    NC370030  24.510  26.651   2.714 -0.0191  0.3022 -0.2713
    1OPC    PO470031  24.829  26.684   2.895  0.1600 -0.1281 -0.1690
    1OPC    GL170032  24.599  26.951   3.156  0.2023  0.0073  0.2128
    1OPC    GL270033  24.547  27.002   3.478  0.2119 -0.3392 -0.0608
    1OPC    C1B70034  24.538  27.039   3.899  0.0014  0.0576 -0.1551
    1OPC    D2B70035  24.710  27.071   4.246 -0.0679  0.1897  0.0612
    1OPC    C3B70036  24.406  27.069   4.583 -0.0883  0.2483 -0.1369
    1OPC    C4B70037  24.232  26.725   4.764  0.2519  0.0520 -0.0840
    1OPC    NC370038  22.070   2.011   2.540 -0.1549 -0.1899  0.1775
    1OPC    PO470039  21.634   2.245   2.825 -0.0693  0.0442  0.0636
    1OPC    GL170040  21.813   2.445   3.155 -0.0643 -0.1843  0.0943
    1OPC    GL270041  22.023   2.636   3.293 -0.1105  0.0276 -0.0647
    1OPC    C1B70042  22.200   2.839   3.664  0.1346  0.1142 -0.1470
    1OPC    D2B70043  22.002   2.712   4.093 -0.2020 -0.0254  0.0488
    1OPC    C3B70044  21.945   2.748   4.573  0.0239  0.4182 -0.1558
    1OPC    C4B70045  21.932   3.048   4.968 -0.1663  0.0250  0.4162
    1OPC    NC370046   2.572   4.803   1.848  0.2314  0.0411  0.2107
    1OPC    PO470047   2.255   4.636   2.094 -0.1558 -0.0859  0.0215
    1OPC    GL170048   2.102   4.440   2.591 -0.1476  0.3185  0.1696
    1OPC    GL270049   2.256   4.436   2.865  0.1134  0.2090 -0.1757
    1OPC    C1B70050   2.327   4.596   3.254  0.3038 -0.0790  0.3104
    1OPC    D2B70051   2.314   4.645   3.632 -0.3794  0.1035 -0.1656
    1OPC    C3B70052   2.442   4.979   3.820  0.0726 -0.2360 -0.3640
    1OPC    C4B70053   2.798   5.025   4.076  0.1290 -0.0037 -0.1444
    1OPC    NC370054   3.559   6.620   2.219  0.2489 -0.0086  0.1917
    1OPC    PO470055   3.202   6.743   2.402  0.1061 -0.1317  0.1514
    1OPC    GL170056   3.033   6.596   2.806 -0.2182  0.1825 -0.3640
    1OPC    GL270057   2.762   6.509   3.031  0.1103 -0.0203 -0.3043
    1OPC    C1B70058   2.660   6.426   3.492 -0.0326 -0.0831 -0.0022
    1OPC    D2B70059   2.702   6.324   3.988  0.0438  0.1498 -0.2992
    1OPC    C3B70060   2.565   5.970   4.139  0.0835 -0.0250 -0.1905
    1OPC    C4B70061   2.260   5.836   4.421 -0.1683  0.2124 -0.4063
    1OPC    NC370062   1.401   4.852   1.880  0.1668  0.0305 -0.0546
    1OPC    PO470063   1.482   5.048   2.273 -0.0789 -0.0555  0.2142
    1OPC    GL170064   1.114   5.023   2.596 -0.2080  0.2885  0.0088
    1OPC    GL270065   0.944   4.836   2.810  0.3327 -0.2109  0.3582
    1OPC    C1B70066   0.814   4.735   3.235  0.0927 -0.1434 -0.1458
    1OPC    D2B70067   0.844   4.965   3.568 -0.0588  0.0217 -0.2251
    1OPC    C3B70068   0.998   5.023   4.073 -0.0599 -0.1534  0.1427
    1OPC    C4B70069   0.968   4.942   4.533  0.0939  0.1132 -0.0060
    1OPC    NC370070   6.526  17.348   2.047  0.3644 -0.0906  0.1116
    1OPC    PO470071   6.884  17.261   2.318  0.2350 -0.0899 -0.0652
    1OPC    GL170072   6.755  17.408   2.614 -0.2732 -0.0217 -0.2126
    1OPC    GL270073   6.708  17.705   2.781  0.2507 -0.0710  0.0041
    1OPC    C1B70074   6.832  17.902   3.229  0.0708  0.2447  0.1145
    1OPC    D2B70075   6.806  17.755   3.669  0.1034  0.2134  0.2997
    1OPC    C3B70076   6.500  17.949   3.930  0.2850 -0.1217  0.0078
    1OPC    C4B70077   6.515  18.171   4.300  0.2437 -0.0033 -0.0111
    1OPC    NC370078   6.242  13.510   2.085 -0.0311  0.1859 -0.2548
    1OPC    PO470079   6.113  14.015   2.252  0.1263  0.0589  0.0314
    1OPC    GL170080   6.031  14.357   2.592  0.3048 -0.2747  0.0305
    1OPC    GL270081   6.047  14.384   2.935 -0.2660  0.1067 -0.1881
    1OPC    C1B70082   6.065  14.194   3.383  0.1586  0.1262 -0.0348
    1OPC    D2B70083   6.132  14.101   3.787  0.1437 -0.4751  0.0240
    1OPC    C3B70084   5.962  14.227   4.143  0.3125  0.0481  0.0815
    1OPC    C4B70085   5.845  14.126   4.567  0.0133  0.1661  0.0395
    1OPC    NC370086  27.524  26.296   2.785 -0.0731  0.3730  0.1727
    1OPC    PO470087  27.949  26.519   2.545  0.0347  0.1005  0.0308
    1OPC    GL170088  28.027  26.190   2.796 -0.2052  0.1965 -0.4374
    1OPC    GL270089  27.890  26.170   3.178  0.0634  0.1060 -0.1723
    1OPC    C1B70090  28.117  26.312   3.501  0.2769  0.2488  0.0826
    1OPC    D2B70091  28.055  26.291   3.984 -0.1517 -0.3265  0.1395
    1OPC    C3B70092  27.735  26.291   4.284 -0.1904 -0.0223 -0.0824
    1OPC    C4B70093  27.544  26.556   4.538  0.0024 -0.0259  0.2914
    1OPC    NC370094  16.753  23.997   3.013  0.3424  0.1610 -0.0295
    1OPC    PO470095  16.895  24.320   2.722 -0.0530  0.1207  0.0267
    1OPC    GL170096  16.915  24.509   3.141  0.3282  0.2215  0.1665
    1OPC    GL270097  17.077  24.436   3.476 -0.1518  0.0433  0.0606
    1OPC    C1B70098  17.002  24.280   3.904  0.2600  0.0912 -0.1093
    1OPC    D2B70099  17.005  24.124   4.233  0.1023 -0.0609  0.0524
    1OPC    C3B70100  16.896  24.387   4.635  0.0627  0.3355  0.0752
    1OPC    C4B70101  17.244  24.596   4.996  0.2876  0.1143 -0.2176
    1OPC    NC370102  18.091  27.860   3.491  0.2254  0.2474 -0.1756
    1OPC    PO470103  17.703  28.086   3.600 -0.0720  0.1730  0.1042
    1OPC    GL170104  17.707  28.214   4.079  0.1017  0.1520  0.1398
    1OPC    GL270105  17.849  28.223   4.447  0.0295 -0.0005 -0.2083
    1OPC    C1B70106  18.067  28.025   4.761  0.0325  0.0567 -0.0493
    1OPC    D2B70107  18.013  27.931   5.154  0.0999  0.0224  0.0410
    1OPC    C3B70108  18.247  27.638   5.468 -0.0699  0.2105 -0.1654
    1OPC    C4B70109  18.668  27.417   5.495 -0.4472 -0.1326  0.0237
    1OPC    NC370110   8.532  22.634   2.293 -0.0719 -0.1357  0.3533
    1OPC    PO470111   8.729  22.354   2.118  0.2734 -0.2078  0.0784
    1OPC    GL170112   8.797  22.122   2.392  0.1727  0.0152 -0.0579
    1OPC    GL270113   9.050  22.094   2.755 -0.0765  0.0636  0.1933
    1OPC    C1B70114   9.263  22.190   3.007  0.0244  0.3789 -0.0582
    1OPC    D2B70115   9.616  22.344   3.235  0.2275  0.0904  0.0038
    1OPC    C3B70116   9.652  22.215   3.724  0.1290 -0.0687  0.0632
    1OPC    C4B70117   9.820  22.110   4.186  0.1675 -0.2739 -0.0373
    1OPC    NC370118   0.436  23.114   2.538  0.3748  0.0048  0.1238
    1OPC    PO470119   0.694  22.780   2.585 -0.2329 -0.1452 -0.1113
    1OPC    GL170120   1.009  22.746   3.012  0.1033  0.3091  0.0003
    1OPC    GL270121   0.980  22.671   3.287  0.1441 -0.1563  0.1408
    1OPC    C1B70122   0.953  22.520   3.745 -0.0788  0.1187 -0.1037
    1OPC    D2B70123   0.970  22.192   4.082 -0.3153  0.1439  0.0892
    1OPC    C3B70124   1.184  21.880   4.289 -0.0802 -0.3098 -0.0834
    1OPC    C4B70125   1.497  21.649   4.405 -0.3531 -0.0217 -0.2858
    1OPC    NC370126  22.939  19.520   2.357  0.0620  0.1997 -0.1573
    1OPC    PO470127  22.812  19.473   2.821 -0.1277  0.0161 -0.0160
    1OPC    GL170128  23.116  19.439   3.102 -0.0180 -0.1020 -0.0837
    1OPC    GL270129  23.251  19.510   3.358  0.0963  0.1037  0.0579
    1OPC    C1B70130  23.219  19.389   3.821 -0.2797 -0.0243  0.0703
    1OPC    D2B70131  22.999  19.435   4.165  0.2130 -0.1244  0.0957
    1OPC    C3B70132  22.861  19.335   4.604 -0.0562 -0.2788 -0.3105
    1OPC    C4B70133  22.711  18.976   4.813  0.1759  0.2313  0.0338
    1OPC    NC370134  20.689  21.334   2.659 -0.0792  0.0452  0.1470
    1OPC    PO470135  21.039  21.253   3.029  0.2204 -0.0266 -0.1003
    1OPC    GL170136  21.046  21.317   3.422 -0.1620  0.0663  0.1700
    1OPC    GL270137  21.204  21.202   3.745 -0.1467 -0.0123 -0.1866
    1OPC    C1B70138  21.219  21.225   4.167 -0.1591  0.1289  0.4803
    1OPC    D2B70139  20.985  21.324   4.563  0.1394  0.4015  0.3398
    1OPC    C3B70140  21.118  21.553   4.882 -0.0010 -0.2905 -0.2954
    1OPC    C4B70141  21.157  21.513   5.283  0.1591  0.1296 -0.1405
    1OPC    NC370142   0.082   0.525   2.743 -0.2726  0.3694 -0.0165
    1OPC    PO470143  -0.146   0.718   3.192  0.1031  0.1645  0.0368
    1OPC    GL170144   0.147   0.655   3.561 -0.0991 -0.1177 -0.2718
    1OPC    GL270145   0.274   0.359   3.758 -0.2469  0.0126  0.3205
    1OPC    C1B70146   0.021   0.066   4.057 -0.0709  0.0051 -0.0219
    1OPC    D2B70147   0.222  -0.038   4.491 -0.1439 -0.0008 -0.2095
    1OPC    C3B70148   0.150   0.106   5.000  0.0319 -0.4571 -0.1114
    1OPC    C4B70149   0.132   0.445   5.340 -0.2668 -0.1805  0.0270
    1OPC    NC370150   1.497  23.205   1.976  0.0226  0.0352 -0.5098
    1OPC    PO470151   1.541  22.954   2.331  0.4660 -0.2361 -0.3159
    1OPC    GL170152   1.400  23.063   2.764  0.0218 -0.2123 -0.0391
    1OPC    GL270153   1.420  23.133   3.088 -0.0904  0.2008 -0.4089
    1OPC    C1B70154   1.164  23.108   3.455  0.0228 -0.0634  0.1415
    1OPC    D2B70155   1.205  23.166   3.827 -0.0016  0.0026 -0.1078
    1OPC    C3B70156   1.458  22.984   4.172 -0.0857 -0.0593  0.0532
    1OPC    C4B70157   1.470  22.735   4.541 -0.0936 -0.2828  0.1613
    1OPC    NC370158  26.508   0.407   3.164 -0.2173 -0.2277 -0.4055
    1OPC    PO470159  26.447   0.034   3.085 -0.1243 -0.1858  0.1709
    1OPC    GL170160  26.301  -0.026   3.429 -0.3724 -0.1331  0.0174
    1OPC    GL270161  26.150   0.099   3.718  0.0607 -0.2167 -0.0215
    1OPC    C1B70162  25.877   0.290   3.940  0.0585  0.0425 -0.0286
    1OPC    D2B70163  25.564   0.384   4.109 -0.2792 -0.0179 -0.1464
    1OPC    C3B70164  25.452   0.262   4.381  0.1966 -0.1670 -0.2257
    1OPC    C4B70165  25.279  -0.053   4.657  0.0983 -0.1688 -0.3857
    1OPC    NC370166  15.132   5.713   3.988 -0.0572 -0.0136 -0.0103
    1OPC    PO470167  15.456   5.549   3.944 -0.0495  0.1446 -0.3030
    1OPC    GL170168  15.644   5.357   4.399  0.1509  0.1516  0.1475
    1OPC    GL270169  15.758   5.491   4.638 -0.4658 -0.2246 -0.0221
    1OPC    C1B70170  15.905   5.567   5.045  0.0285  0.1493 -0.2118
    1OPC    D2B70171  15.989   5.670   5.475 -0.1314  0.3731  0.0094
    1OPC    C3B70172  16.221   5.997   5.504 -0.0792 -0.0769  0.3489
    1OPC    C4B70173  16.300   6.378   5.434  0.0761 -0.1221 -0.0421
    1OPC    NC370174   5.616  12.830   2.470  0.1336 -0.1018 -0.3076
    1OPC    PO470175   5.626  13.209   2.646 -0.1186  0.3336  0.1717
    1OPC    GL170176   5.742  13.189   3.151  0.0880  0.0803  0.1563
    1OPC    GL270177   6.062  13.266   3.354 -0.1142  0.0161 -0.1062
    1OPC    C1B70178   6.140  13.403   3.693  0.1197  0.0539  0.1401
    1OPC    D2B70179   6.159  13.611   4.074  0.4426  0.1702 -0.0727
    1OPC    C3B70180   5.854  13.667   4.363  0.0126  0.1655  0.0541
    1OPC    C4B70181   5.873  13.640   4.772 -0.2082 -0.0798  0.1581
    1OPC    NC370182   6.456   0.369   3.210  0.0409 -0.3329 -0.2102
    1OPC    PO470183   6.235   0.753   3.037  0.0485 -0.1578  0.3890
    1OPC    GL170184   6.160   0.844   3.432 -0.1416 -0.2056 -0.2807
    1OPC    GL270185   6.228   1.016   3.672  0.0532 -0.1920 -0.0001
    1OPC    C1B70186   6.086   1.063   4.118  0.1132  0.0111 -0.1278
    1OPC    D2B70187   6.039   0.868   4.486 -0.0326  0.0716 -0.1889
    1OPC    C3B70188   6.185   1.138   4.904 -0.1096  0.1879 -0.4348
    1OPC    C4B70189   6.521   1.162   5.270  0.4938  0.0311 -0.1313
    1OPC    NC370190  26.635  17.691   2.069  0.1446 -0.0608 -0.2631
    1OPC    PO470191  26.257  17.835   2.244  0.1513 -0.0700  0.0012
    1OPC    GL170192  26.328  17.916   2.724 -0.0513  0.2928 -0.1524
    1OPC    GL270193  26.152  18.098   3.020 -0.0849 -0.6046 -0.1479
    1OPC    C1B70194  26.222  18.035   3.519  0.1827  0.0609  0.3458
    1OPC    D2B70195  26.237  17.705   3.737  0.0107 -0.1111  0.0779
    1OPC    C3B70196  25.911  17.762   4.082 -0.0260  0.2974 -0.0073
    1OPC    C4B70197  25.711  17.853   4.540 -0.2806 -0.1048  0.0062
    1OPC    NC370198   6.102   9.885   2.855 -0.1563  0.1715  0.0388
    1OPC    PO470199   5.760  10.258   3.028 -0.0976 -0.0190 -0.0288
    1OPC    GL170200   5.864  10.411   3.351 -0.0640  0.1448  0.0129
    1OPC    GL270201   5.675  10.472   3.601  0.4790  0.1879  0.0518
    1OPC    C1B70202   5.657  10.328   4.061 -0.4139  0.2669  0.0053
    1OPC    D2B70203   5.461  10.084   4.452  0.0156 -0.0042 -0.3174
    1OPC    C3B70204   5.332  10.393   4.738 -0.1889  0.2665 -0.2511
    1OPC    C4B70205   5.065  10.640   5.037 -0.2886  0.1597 -0.3523
    1OPC    NC370206  15.561   7.100   3.488 -0.3898  0.0309 -0.1114
    1OPC    PO470207  16.080   7.222   3.419 -0.1219  0.0061 -0.1635
    1OPC    GL170208  16.394   7.467   3.783  0.3137  0.2443 -0.0338
    1OPC    GL270209  16.496   7.800   3.912  0.2164 -0.4175  0.0548
    1OPC    C1B70210  16.507   8.014   4.257 -0.0449 -0.0424 -0.0441
    1OPC    D2B70211  16.698   8.455   4.518 -0.1441 -0.0806  0.1455
    1OPC    C3B70212  16.807   8.911   4.632 -0.2311  0.1286 -0.0003
    1OPC    C4B70213  17.040   9.035   4.957  0.0910  0.0854 -0.0767
    1OPC    NC370214   1.574  14.001   1.988  0.1051 -0.0347 -0.0864
    1OPC    PO470215   1.658  14.358   1.992  0.0706  0.0073 -0.0516
    1OPC    GL170216   1.673  14.197   2.413 -0.0545 -0.3120  0.3864
    1OPC    GL270217   1.741  13.959   2.590 -0.0187 -0.0540 -0.0635
    1OPC    C1B70218   1.652  13.739   2.872  0.0935 -0.2514 -0.1787
    1OPC    D2B70219   1.290  13.710   3.008 -0.0388 -0.1293  0.3049
    1OPC    C3B70220   1.239  13.697   3.426  0.0387  0.2928  0.1984
    1OPC    C4B70221   1.221  13.467   3.801 -0.1096 -0.3713  0.2843
    1OPC    NC370222   3.492   1.922   3.244  0.2098  0.0176 -0.0652
    1OPC    PO470223   3.843   2.002   3.350  0.0066 -0.1540  0.1608
    1OPC    GL170224   3.933   1.987   3.773  0.1374 -0.1680 -0.1245
    1OPC    GL270225   4.100   1.910   3.996  0.1016  0.1390 -0.3809
    1OPC    C1B70226   4.261   1.583   4.233 -0.2926 -0.0679  0.0422
    1OPC    D2B70227   4.320   1.396   4.683  0.0873  0.0111 -0.2010
    1OPC    C3B70228   4.249   0.918   4.773 -0.3815 -0.2776 -0.2790
    1OPC    C4B70229   4.156   0.586   5.037  0.1357  0.2499 -0.5708
    1OPC    NC370230  26.457  13.109   2.471 -0.2567 -0.0047  0.1016
    1OPC    PO470231  26.779  12.811   2.522 -0.3153 -0.2738 -0.3786
    1OPC    GL170232  26.264  12.684   2.572  0.2590 -0.1648  0.2851
    1OPC    GL270233  26.020  12.655   2.863  0.2401  0.1584 -0.0224
    1OPC    C1B70234  26.246  12.384   3.311  0.1701 -0.4285  0.2673
    1OPC    D2B70235  25.912  12.149   3.494 -0.1805 -0.0183 -0.0369
    1OPC    C3B70236  25.546  12.202   3.659  0.1950 -0.2193  0.2627
    1OPC    C4B70237  25.293  12.542   3.809 -0.2396  0.2006 -0.0270
    1OPC    NC370238  25.481   2.057   2.366  0.0358  0.3485  0.0716
    1OPC    PO470239  25.323   1.817   2.660  0.0987  0.2251  0.3260
    1OPC    GL170240  25.307   2.101   2.958 -0.0656 -0.3671  0.0080
    1OPC    GL270241  25.183   2.419   3.071  0.1041 -0.0173 -0.0432
    1OPC    C1B70242  25.077   2.705   3.381 -0.1090  0.1126  0.1438
    1OPC    D2B70243  24.993   3.174   3.477 -0.0164  0.2336 -0.0756
    1OPC    C3B70244  25.338   3.285   3.539 -0.4301  0.0473  0.0530
    1OPC    C4B70245  25.736   3.178   3.735  0.0978  0.2420  0.0754
    1OPC    NC370246  13.331  28.104   4.010  0.0963  0.1707  0.1692
    1OPC    PO470247  13.022  28.159   3.744 -0.1018  0.0530  0.1959
    1OPC    GL170248  13.010  27.792   4.134  0.0634 -0.0342  0.0216
    1OPC    GL270249  12.855  27.639   4.451 -0.2994 -0.0586  0.1178
    1OPC    C1B70250  13.019  27.656   4.883  0.1480  0.1425  0.1696
    1OPC    D2B70251  13.315  27.540   5.203  0.1263  0.2339  0.2895
    1OPC    C3B70252  13.366  27.187   5.474 -0.0677 -0.3297  0.4902
    1OPC    C4B70253  13.533  27.177   5.880 -0.1017 -0.1205 -0.1680
    1OPC    NC370254  21.555   8.635   2.766 -0.0472  0.3267 -0.2731
    1OPC    PO470255  21.770   8.508   3.178 -0.0965 -0.1584 -0.0460
    1OPC    GL170256  22.196   8.592   3.296 -0.2212  0.2742  0.0285
    1OPC    GL270257  22.417   8.722   3.447 -0.0686  0.2255  0.1001
    1OPC    C1B70258  22.403   8.918   3.910 -0.1070 -0.0425  0.1298
    1OPC    D2B70259  22.179   9.158   4.278  0.2207  0.0606 -0.0978
    1OPC    C3B70260  22.337   9.179   4.735 -0.0162  0.0064 -0.2087
    1OPC    C4B70261  22.360   8.942   5.192  0.1341 -0.0570  0.0378
    1OPC    NC370262   9.297   7.248   2.872 -0.3510 -0.0208  0.0708
    1OPC    PO470263   9.015   6.886   2.907  0.2766 -0.0612 -0.1656
    1OPC    GL170264   8.967   7.116   3.231  0.0598 -0.3817  0.0909
    1OPC    GL270265   9.104   7.135   3.522  0.2479  0.1397  0.0566
    1OPC    C1B70266   9.345   7.049   3.967  0.1108  0.1796  0.0301
    1OPC    D2B70267   9.510   6.998   4.363 -0.1279  0.0735 -0.1282
    1OPC    C3B70268   9.368   7.064   4.651  0.0547  0.0645 -0.1466
    1OPC    C4B70269   9.431   7.126   5.102 -0.0919  0.2319 -0.0649
    1OPC    NC370270  10.361  26.983   3.312  0.1292  0.2409 -0.3603
    1OPC    PO470271  10.358  26.953   3.791 -0.1107  0.1191 -0.1766
    1OPC    GL170272  10.519  27.187   4.132  0.0870  0.3231  0.0760
    1OPC    GL270273  10.612  27.263   4.465 -0.3594  0.1298 -0.1651
    1OPC    C1B70274  10.868  27.527   4.772  0.0715 -0.0638 -0.0414
    1OPC    D2B70275  11.093  27.435   5.062  0.1212  0.0588  0.1289
    1OPC    C3B70276  11.181  26.950   5.076 -0.4539 -0.0468  0.2259
    1OPC    C4B70277  11.054  26.643   4.870 -0.1312  0.1160  0.1280
    1OPC    NC370278  18.466   5.642   3.180 -0.1773  0.1338  0.0512
    1OPC    PO470279  18.621   5.649   2.692 -0.0446 -0.0703  0.0962
    1OPC    GL170280  18.955   5.580   2.936  0.0552  0.0850  0.1455
    1OPC    GL270281  19.069   5.545   3.440  0.0303  0.1466  0.3733
    1OPC    C1B70282  19.191   5.745   3.731  0.1402  0.1005 -0.2095
    1OPC    D2B70283  19.494   6.128   3.745  0.0486  0.0698  0.1880
    1OPC    C3B70284  19.502   6.303   4.113 -0.0190 -0.1545 -0.1673
    1OPC    C4B70285  19.765   6.271   4.436 -0.0641  0.1641  0.0557
    1OPC    NC370286  26.820   7.678   1.420  0.1654  0.0955  0.2794
    1OPC    PO470287  26.834   7.688   1.909  0.1894 -0.0006  0.1683
    1OPC    GL170288  26.729   7.723   2.429  0.0563 -0.0483  0.1826
    1OPC    GL270289  26.478   7.815   2.623 -0.3451 -0.1563 -0.0201
    1OPC    C1B70290  26.456   7.869   2.971 -0.2177 -0.2373  0.0809
    1OPC    D2B70291  26.416   7.910   3.410  0.1002 -0.1575 -0.0594
    1OPC    C3B70292  26.039   7.999   3.650 -0.1682  0.0509 -0.0743
    1OPC    C4B70293  26.102   8.203   4.050 -0.0162  0.4612  0.0290
    1OPC    NC370294  15.040   4.269   4.072 -0.2475 -0.3361 -0.1317
    1OPC    PO470295  15.453   4.078   3.929 -0.1717  0.0825  0.2149
    1OPC    GL170296  15.465   4.030   4.373  0.2024 -0.1136  0.2970
    1OPC    GL270297  15.266   3.923   4.478 -0.2942 -0.0054  0.1099
    1OPC    C1B70298  15.322   3.949   4.918  0.1851 -0.0704 -0.1222
    1OPC    D2B70299  15.371   3.808   5.319  0.1648 -0.1100  0.1483
    1OPC    C3B70300  15.686   3.592   5.061  0.0534  0.0436 -0.0566
    1OPC    C4B70301  15.616   3.535   4.695  0.0918 -0.0815  0.0518
    1OPC    NC370302   8.703   1.298   3.537 -0.2341 -0.0123 -0.4720
    1OPC    PO470303   8.346   1.402   3.187  0.1249  0.3510 -0.4839
    1OPC    GL170304   8.092   1.556   3.531  0.3521  0.0826 -0.0229
    1OPC    GL270305   8.144   1.494   3.836  0.2648 -0.0065 -0.0332
    1OPC    C1B70306   8.400   1.732   4.205 -0.0657 -0.0245  0.0946
    1OPC    D2B70307   8.604   1.898   4.562 -0.0116  0.2179 -0.2144
    1OPC    C3B70308   8.523   1.518   4.820  0.2129  0.0942  0.2736
    1OPC    C4B70309   8.288   1.395   5.063 -0.0670 -0.1541  0.1668
    1OPC    NC370310  19.946  21.406   2.486 -0.1301 -0.1444  0.1732
    1OPC    PO470311  20.252  21.596   2.760  0.0705 -0.1077  0.0574
    1OPC    GL170312  20.291  21.860   3.114 -0.2541 -0.1420  0.0820
    1OPC    GL270313  20.062  21.812   3.340  0.1782  0.1462  0.0043
    1OPC    C1B70314  19.881  21.754   3.790  0.1817 -0.0493  0.0957
    1OPC    D2B70315  19.879  21.657   4.190  0.0008  0.1924 -0.0201
    1OPC    C3B70316  20.238  21.772   4.434  0.1080  0.0581  0.4147
    1OPC    C4B70317  20.574  21.584   4.603 -0.2813 -0.0553 -0.0042
    1OPC    NC370318   4.902   9.718   2.955 -0.1985 -0.0443 -0.0991
    1OPC    PO470319   5.200   9.971   2.914 -0.3365  0.1153  0.0129
    1OPC    GL170320   5.301  10.138   3.381 -0.2903 -0.1537  0.0435
    1OPC    GL270321   5.146  10.503   3.588  0.1828  0.2167  0.0406
    1OPC    C1B70322   5.005  10.686   3.918  0.0352  0.0373 -0.0141
    1OPC    D2B70323   5.240  10.698   4.300  0.1347  0.2107  0.0816
    1OPC    C3B70324   5.106  10.934   4.649 -0.1575 -0.0626  0.1112
    1OPC    C4B70325   4.854  11.100   5.021  0.0409 -0.0779 -0.2698
    1OPC    NC370326  16.273   8.168   3.091 -0.0783  0.1773 -0.1673
    1OPC    PO470327  15.814   8.036   3.238 -0.1185 -0.2497  0.0316
    1OPC    GL170328  15.919   8.429   3.407 -0.0339 -0.1348 -0.0279
    1OPC    GL270329  15.958   8.760   3.615  0.1517 -0.1787 -0.0936
    1OPC    C1B70330  15.954   9.006   4.034  0.0917  0.1423  0.2661
    1OPC    D2B70331  16.299   8.910   4.270  0.1162 -0.1374 -0.0907
    1OPC    C3B70332  16.257   8.867   4.693 -0.0052  0.1272  0.0435
    1OPC    C4B70333  16.519   9.110   4.973  0.3833  0.1561 -0.0956
    1OPC    NC370334   9.972   2.233   2.752  0.0141  0.1953 -0.1304
    1OPC    PO470335   9.683   2.158   3.015 -0.0229 -0.0940  0.1174
    1OPC    GL170336   9.650   2.332   3.406  0.1747  0.2101  0.1976
    1OPC    GL270337   9.530   2.491   3.742  0.0646  0.0059  0.1901
    1OPC    C1B70338   9.583   2.838   4.059 -0.0434 -0.0478 -0.0353
    1OPC    D2B70339   9.713   3.220   4.174 -0.0462 -0.1252  0.0193
    1OPC    C3B70340  10.021   3.508   4.245 -0.0251 -0.1591 -0.1313
    1OPC    C4B70341  10.280   3.819   4.238  0.3294 -0.1226  0.1808
    1OPC    NC370342   0.004  24.945   2.565 -0.2970 -0.0877 -0.1041
    1OPC    PO470343   0.136  24.745   2.998 -0.3548 -0.3123 -0.0875
    1OPC    GL170344   0.284  24.753   3.461  0.0422  0.2115  0.4776
    1OPC    GL270345   0.228  24.834   3.763  0.0055  0.1429 -0.1293
    1OPC    C1B70346   0.055  25.008   4.022 -0.0208  0.3738 -0.1705
    1OPC    D2B70347   0.072  25.244   4.441  0.0658 -0.0169  0.2434
    1OPC    C3B70348  -0.207  24.957   4.643  0.0902  0.0185  0.1827
    1OPC    C4B70349  -0.471  24.716   4.467  0.2540  0.2984 -0.1261
    1OPC    NC370350  18.900   6.765   2.142  0.0452  0.1636 -0.1932
    1OPC    PO470351  18.785   7.132   2.440  0.0806  0.4124 -0.4256
    1OPC    GL170352  18.762   7.189   2.876  0.5067  0.3254 -0.0964
    1OPC    GL270353  18.724   7.136   3.196  0.1493 -0.1242  0.2976
    1OPC    C1B70354  18.649   7.268   3.671  0.1850  0.3785 -0.1018
    1OPC    D2B70355  18.469   7.310   4.073  0.1225  0.0302  0.0576
    1OPC    C3B70356  18.741   7.588   4.323  0.0817 -0.2868  0.1394
    1OPC    C4B70357  18.980   7.835   4.599  0.0113  0.2588  0.0529
    1OPC    NC370358  22.794  26.363   2.846  0.3980  0.0641 -0.0135
    1OPC    PO470359  22.414  26.300   3.056  0.0330  0.1358 -0.0413
    1OPC    GL170360  22.592  26.065   3.326 -0.1692 -0.0971 -0.2820
    1OPC    GL270361  22.621  25.967   3.553  0.3188 -0.0281 -0.0234
    1OPC    C1B70362  22.495  25.916   3.959 -0.1556  0.0917  0.0752
    1OPC    D2B70363  22.291  26.036   4.367 -0.0160 -0.1303  0.1560
    1OPC    C3B70364  22.198  26.447   4.513 -0.1131 -0.1680  0.3113
    1OPC    C4B70365  21.958  26.740   4.563  0.0184 -0.1238  0.3065
    1OPC    NC370366  28.125  11.433   2.731  0.0487 -0.1933  0.2112
    1OPC    PO470367  28.430  11.489   2.891  0.1738  0.2692  0.0944
    1OPC    GL170368  28.056  11.411   3.257  0.1369  0.4283 -0.2404
    1OPC    GL270369  27.851  11.370   3.591  0.0398 -0.0080  0.2185
    1OPC    C1B70370  27.695  11.532   4.016  0.1413  0.1277 -0.0533
    1OPC    D2B70371  27.976  11.651   4.312  0.0793 -0.0919  0.1246
    1OPC    C3B70372  28.500  11.716   4.358 -0.3320  0.0358  0.2379
    1OPC    C4B70373  28.765  11.904   4.592  0.4320 -0.1168 -0.0567
    1OPC    NC370374   3.894   2.697   2.467 -0.0793 -0.0877 -0.1606
    1OPC    PO470375   3.647   3.008   2.618 -0.3589 -0.2437  0.0729
    1OPC    GL170376   3.924   3.364   2.900 -0.0690  0.2213 -0.1381
    1OPC    GL270377   4.060   3.370   3.184  0.2237  0.0212  0.0365
    1OPC    C1B70378   4.284   3.503   3.507  0.1932 -0.0397 -0.1269
    1OPC    D2B70379   4.714   3.398   3.678 -0.0503  0.1339  0.0663
    1OPC    C3B70380   4.629   3.558   4.080  0.0880 -0.0278 -0.0293
    1OPC    C4B70381   4.567   3.546   4.536  0.0245  0.0340 -0.1439
    1OPC    NC370382  19.911   2.192   2.624 -0.2966 -0.0778 -0.2168
    1OPC    PO470383  20.384   2.346   2.542 -0.2111  0.1235  0.0388
    1OPC    GL170384  20.476   2.168   2.948  0.1844 -0.1002 -0.1478
    1OPC    GL270385  20.603   2.182   3.317 -0.0102 -0.1921 -0.1265
    1OPC    C1B70386  20.727   1.954   3.738  0.1187 -0.0994 -0.3820
    1OPC    D2B70387  21.028   1.834   4.189 -0.1053  0.0567  0.1157
    1OPC    C3B70388  20.998   1.425   4.314  0.0916 -0.1810 -0.0605
    1OPC    C4B70389  20.792   1.076   4.222  0.0571 -0.3438 -0.1768
    1OPC    NC370390   6.007  25.300   2.431 -0.0036  0.0877  0.1569
    1OPC    PO470391   5.952  25.644   2.642 -0.0005 -0.0595 -0.0355
    1OPC    GL170392   5.781  25.561   2.999  0.2460  0.1597 -0.4063
    1OPC    GL270393   5.694  25.432   3.185 -0.2016 -0.0529 -0.2484
    1OPC    C1B70394   5.432  25.299   3.513  0.0015 -0.3359  0.2534
    1OPC    D2B70395   5.280  25.370   3.893  0.2116 -0.2979 -0.1383
    1OPC    C3B70396   4.825  25.357   3.968 -0.3350  0.4806  0.1911
    1OPC    C4B70397   4.550  25.351   3.634  0.0306  0.1051  0.1731
    1OPC    NC370398   0.740  26.937   2.774 -0.0102  0.2534 -0.2592
    1OPC    PO470399   0.875  27.178   3.091  0.0242 -0.1369 -0.4200
    1OPC    GL170400   0.825  26.738   3.278  0.0928  0.3331  0.0894
    1OPC    GL270401   0.961  26.463   3.459 -0.0561 -0.0057  0.1712
    1OPC    C1B70402   1.008  26.483   3.858 -0.2439  0.0864  0.0837
    1OPC    D2B70403   1.260  26.736   4.131  0.0412 -0.1317 -0.0096
    1OPC    C3B70404   1.168  26.855   4.595 -0.2857  0.1564 -0.0566
    1OPC    C4B70405   0.802  26.860   5.004  0.0009  0.0960  0.2505
    1OPC    NC370406  14.963  27.064   3.158 -0.0453  0.1579  0.1304
    1OPC    PO470407  14.932  26.757   3.542 -0.1360  0.1245  0.0959
    1OPC    GL170408  14.855  26.577   3.991 -0.4684 -0.1465  0.0056
    1OPC    GL270409  14.673  26.571   4.260  0.0816  0.2996  0.0949
    1OPC    C1B70410  14.750  26.751   4.714  0.2399 -0.2138 -0.0401
    1OPC    D2B70411  15.031  26.712   5.008  0.0775 -0.0253 -0.1816
    1OPC    C3B70412  15.432  26.623   4.983 -0.3793 -0.3316 -0.2961
    1OPC    C4B70413  15.852  26.783   5.046 -0.1830  0.2085  0.1722
    1OPC    NC370414   8.015  14.003   2.353 -0.1941 -0.0081  0.2539
    1OPC    PO470415   7.866  13.597   2.496 -0.0519 -0.3512 -0.4596
    1OPC    GL170416   8.164  13.484   2.610  0.0690 -0.3548 -0.0352
    1OPC    GL270417   8.224  13.330   2.921 -0.0327  0.0604 -0.2288
    1OPC    C1B70418   8.407  13.437   3.175 -0.2553 -0.3171 -0.0457
    1OPC    D2B70419   8.207  13.514   3.631 -0.2073 -0.0464 -0.0249
    1OPC    C3B70420   7.995  13.884   3.744  0.0732 -0.1023 -0.0438
    1OPC    C4B70421   7.960  14.109   4.074  0.3597  0.0352  0.0639
    1OPC    NC370422  14.159  28.996   3.528  0.0712 -0.1034 -0.1059
    1OPC    PO470423  14.138  28.653   3.857  0.2118  0.2026 -0.2623
    1OPC    GL170424  14.026  28.727   4.306 -0.0905 -0.0034 -0.0421
    1OPC    GL270425  14.057  28.724   4.701 -0.0149  0.1127 -0.1482
    1OPC    C1B70426  14.239  28.948   4.999 -0.0871  0.2092  0.0648
    1OPC    D2B70427  14.238  29.209   5.408 -0.0957  0.5133 -0.1053
    1OPC    C3B70428  14.624  29.121   5.606 -0.0781 -0.2909  0.3264
    1OPC    C4B70429  14.929  29.122   5.363  0.0383 -0.0441  0.0762
    1OPC    NC370430   2.830  25.900   2.567 -0.0417 -0.0382 -0.0544
    1OPC    PO470431   2.619  25.651   2.900  0.3070 -0.0982 -0.2999
    1OPC    GL170432   2.499  25.708   3.373 -0.0085 -0.2079  0.1590
    1OPC    GL270433   2.331  25.771   3.507  0.2892  0.2693 -0.0694
    1OPC    C1B70434   2.126  26.056   3.828 -0.1589  0.0760  0.0325
    1OPC    D2B70435   1.961  26.341   4.146 -0.1098 -0.1131 -0.3255
    1OPC    C3B70436   1.714  26.697   3.976 -0.1011 -0.0484  0.0141
    1OPC    C4B70437   1.481  27.113   3.848 -0.0428 -0.1374  0.1054
    1OPC    NC370438   0.225  23.852   2.448  0.0270  0.0826  0.4877
    1OPC    PO470439   0.593  24.009   2.287 -0.2397  0.2495  0.1333
    1OPC    GL170440   0.410  24.291   2.703  0.2810  0.0026 -0.1300
    1OPC    GL270441   0.429  24.259   2.982  0.0256  0.1151 -0.0517
    1OPC    C1B70442   0.598  24.342   3.406 -0.2591  0.0923  0.0806
    1OPC    D2B70443   0.948  24.136   3.773  0.2736  0.0650 -0.0986
    1OPC    C3B70444   1.147  24.377   4.115  0.0398 -0.0723 -0.3143
    1OPC    C4B70445   0.823  24.567   4.497 -0.2804 -0.2654 -0.3125
    1OPC    NC370446  13.577  23.150   3.212 -0.0938 -0.0750 -0.1273
    1OPC    PO470447  13.311  22.766   3.144 -0.1342 -0.0344  0.0877
    1OPC    GL170448  13.445  22.806   3.624 -0.0020  0.0881  0.2960
    1OPC    GL270449  13.470  22.906   3.892 -0.2183 -0.1274  0.1537
    1OPC    C1B70450  13.321  22.790   4.335 -0.3540  0.1877  0.2938
    1OPC    D2B70451  12.919  22.643   4.439 -0.1112 -0.0211 -0.1152
    1OPC    C3B70452  12.674  22.846   4.219 -0.0733 -0.4461  0.0510
    1OPC    C4B70453  12.585  23.317   4.374  0.0746 -0.0609  0.3489
    1OPC    NC370454   2.478  11.434   2.881  0.0957  0.1875 -0.0753
    1OPC    PO470455   2.211  11.055   2.526 -0.3267  0.2017 -0.0282
    1OPC    GL170456   2.326  10.879   2.830 -0.2915 -0.1459 -0.2645
    1OPC    GL270457   2.264  10.800   3.142 -0.0995 -0.1795  0.1740
    1OPC    C1B70458   2.317  10.355   3.336 -0.0132  0.3182  0.1266
    1OPC    D2B70459   2.101  10.214   3.549 -0.1029  0.1026 -0.4463
    1OPC    C3B70460   2.268  10.451   3.908 -0.0692  0.0525 -0.1034
    1OPC    C4B70461   2.142  10.836   4.223  0.0335  0.0177 -0.0483
    1OPC    NC370462  25.752   4.860   2.512 -0.1974 -0.4335  0.1008
    1OPC    PO470463  25.387   5.274   2.409  0.0211  0.2088 -0.3150
    1OPC    GL170464  25.470   5.150   2.775  0.0142 -0.1544  0.1238
    1OPC    GL270465  25.487   5.191   3.105  0.2970  0.3419  0.1483
    1OPC    C1B70466  25.827   5.294   3.478  0.0095 -0.0864  0.1214
    1OPC    D2B70467  26.198   5.629   3.443  0.3432 -0.0955  0.0518
    1OPC    C3B70468  26.435   5.348   3.562  0.0482  0.1483  0.1516
    1OPC    C4B70469  26.322   4.967   3.482  0.2532  0.1671  0.2165
    1OPC    NC370470  14.874  23.649   2.222  0.0767 -0.1010  0.2309
    1OPC    PO470471  15.097  23.921   2.545  0.1487 -0.0481 -0.2403
    1OPC    GL170472  15.141  23.955   2.910 -0.2119  0.1581 -0.3438
    1OPC    GL270473  15.080  24.151   3.189 -0.0388  0.1641 -0.0120
    1OPC    C1B70474  15.186  23.982   3.691 -0.0601 -0.2500 -0.3908
    1OPC    D2B70475  15.065  23.975   4.192  0.2296 -0.0648  0.3337
    1OPC    C3B70476  15.197  23.949   4.496  0.1071 -0.0246 -0.0745
    1OPC    C4B70477  15.041  23.707   4.746 -0.0726  0.2834  0.1785
    1OPC    NC370478  27.747  17.250   2.699  0.0581 -0.1449  0.0671
    1OPC    PO470479  28.010  16.926   2.577 -0.4128 -0.0410 -0.0507
    1OPC    GL170480  28.265  16.699   2.911 -0.0311  0.2001  0.0362
    1OPC    GL270481  28.567  16.728   3.070 -0.0316 -0.0334  0.1417
    1OPC    C1B70482  28.523  17.009   3.496 -0.0396 -0.0623 -0.0349
    1OPC    D2B70483  28.773  16.887   3.852  0.0246  0.2782  0.0401
    1OPC    C3B70484  29.003  17.150   4.136  0.2468 -0.2439 -0.2270
    1OPC    C4B70485  29.350  17.480   4.219  0.2877  0.0160 -0.1436
    1OPC    NC370486  11.934  21.060   1.805  0.0260 -0.0684  0.0126
    1OPC    PO470487  11.798  20.790   2.121 -0.1697  0.1127  0.1757
    1OPC    GL170488  11.685  20.714   2.544 -0.2661  0.0499  0.1073
    1OPC    GL270489  11.789  20.553   2.853  0.0881 -0.0315 -0.2287
    1OPC    C1B70490  11.893  20.517   3.283 -0.0905  0.0775  0.0452
    1OPC    D2B70491  11.819  20.695   3.665 -0.0395  0.0127 -0.0417
    1OPC    C3B70492  11.740  20.630   4.044  0.2456  0.0688  0.2382
    1OPC    C4B70493  11.494  20.816   4.515 -0.1943 -0.1522  0.0167
    1OPC    NC370494  14.168  21.764   1.666 -0.3193 -0.1545  0.1211
    1OPC    PO470495  14.032  21.976   2.060 -0.1306 -0.0763 -0.0581
    1OPC    GL170496  14.380  22.194   2.391 -0.0210 -0.0860 -0.2602
    1OPC    GL270497  14.462  22.239   2.616 -0.1918 -0.1629 -0.0952
    1OPC    C1B70498  14.638  22.401   2.996  0.0381  0.0149  0.1390
    1OPC    D2B70499  15.064  22.560   3.118  0.1057  0.1277  0.1374
    1OPC    C3B70500  15.263  22.610   3.419  0.3855  0.3209 -0.1130
    1OPC    C4B70501  15.429  22.987   3.679  0.0378 -0.0618  0.1326
    1OPC    NC370502   6.922  27.449   3.179  0.0416  0.0189  0.1536
    1OPC    PO470503   6.611  27.777   3.274 -0.0439 -0.1245 -0.1842
    1OPC    GL170504   6.432  27.732   3.721 -0.2313  0.4680 -0.0414
    1OPC    GL270505   6.492  27.567   3.948  0.2430  0.0808  0.0544
    1OPC    C1B70506   6.483  27.136   3.964  0.0783  0.0613 -0.1467
    1OPC    D2B70507   6.218  26.910   4.250 -0.3256 -0.3955  0.2719
    1OPC    C3B70508   6.220  26.993   4.764  0.4054 -0.3588  0.0548
    1OPC    C4B70509   6.174  26.651   5.065 -0.1375 -0.4031  0.0057
    1OPC    NC370510  18.456  28.512   2.892 -0.0732 -0.0430 -0.3051
    1OPC    PO470511  18.396  28.917   3.084 -0.1871  0.1173 -0.1617
    1OPC    GL170512  18.607  28.644   3.323  0.1437 -0.4345 -0.0689
    1OPC    GL270513  18.943  28.671   3.486 -0.0025 -0.1112 -0.1629
    1OPC    C1B70514  19.133  28.708   3.961 -0.3054 -0.0626  0.1846
    1OPC    D2B70515  19.316  28.520   4.386  0.3283 -0.1315 -0.0244
    1OPC    C3B70516  19.434  28.877   4.522 -0.1323  0.1433 -0.1673
    1OPC    C4B70517  19.539  29.252   4.899 -0.0515  0.0132  0.0585
    1OPC    NC370518   9.043  28.589   3.397  0.0117 -0.1259 -0.1965
    1OPC    PO470519   8.713  28.781   3.171  0.1694  0.0285 -0.1450
    1OPC    GL170520   8.600  28.776   3.692  0.0011 -0.1560 -0.2376
    1OPC    GL270521   8.616  28.730   3.973  0.1468  0.1950  0.1517
    1OPC    C1B70522   8.480  28.652   4.482  0.2113  0.0773 -0.0608
    1OPC    D2B70523   8.308  28.515   4.894 -0.0423 -0.0776  0.1772
    1OPC    C3B70524   8.480  28.118   4.880 -0.1579 -0.1161 -0.0979
    1OPC    C4B70525   8.212  27.709   4.987 -0.4064 -0.3046  0.3258
    1OPC    NC370526  29.283  27.141   2.533  0.2238 -0.3894  0.0382
    1OPC    PO470527  29.639  26.957   2.681 -0.2008 -0.1137  0.1362
    1OPC    GL170528  29.761  26.905   3.088 -0.0559  0.4572  0.2087
    1OPC    GL270529  29.776  27.031   3.384 -0.5869  0.0199  0.2909
    1OPC    C1B70530  29.493  26.824   3.723  0.1745 -0.3531 -0.1331
    1OPC    D2B70531  29.516  26.808   4.104 -0.4173  0.0748 -0.1249
    1OPC    C3B70532  29.445  26.565   4.441 -0.0791  0.1209 -0.0210
    1OPC    C4B70533  29.309  26.360   4.917 -0.1032  0.3132  0.1009
    1OPC    NC370534   5.845  15.271   2.481 -0.0709  0.3327 -0.2667
    1OPC    PO470535   5.388  15.496   2.447 -0.0431 -0.0285 -0.1224
    1OPC    GL170536   5.365  15.762   2.800 -0.1658 -0.2326 -0.2895
    1OPC    GL270537   5.289  15.895   3.035  0.2356  0.3313 -0.0864
    1OPC    C1B70538   5.138  15.910   3.482  0.0058  0.1828 -0.0288
    1OPC    D2B70539   5.301  16.095   3.782 -0.0633 -0.1356  0.2108
    1OPC    C3B70540   5.141  16.336   3.976  0.1113 -0.3245  0.2217
    1OPC    C4B70541   5.122  16.841   3.920 -0.0012  0.1895  0.1753
    1OPC    NC370542   1.334   8.123   2.155  0.0200  0.1016 -0.0440
    1OPC    PO470543   1.633   7.843   2.162  0.1101 -0.1144 -0.0540
    1OPC    GL170544   1.835   7.799   2.495 -0.1321  0.0728  0.0318
    1OPC    GL270545   1.775   7.852   2.937  0.0663  0.0511 -0.2386
    1OPC    C1B70546   2.021   7.679   3.318  0.0155 -0.2559  0.1200
    1OPC    D2B70547   1.919   7.587   3.685  0.0490 -0.3215  0.0001
    1OPC    C3B70548   2.199   7.410   3.830 -0.0499  0.0484  0.2797
    1OPC    C4B70549   2.538   7.191   4.045  0.1487  0.0061  0.0734
    1OPC    NC370550  26.355   9.656   2.428 -0.0192  0.1687  0.0796
    1OPC    PO470551  26.029   9.684   2.708 -0.1479  0.0630  0.3387
    1OPC    GL170552  25.931   9.513   3.119  0.0030 -0.1640 -0.2446
    1OPC    GL270553  25.651   9.340   3.301  0.1433 -0.0278 -0.2688
    1OPC    C1B70554  25.545   9.259   3.724  0.1411  0.1071  0.0241
    1OPC    D2B70555  25.360   9.132   4.115 -0.0797  0.0236 -0.0209
    1OPC    C3B70556  25.306   9.275   4.531 -0.0407 -0.0238  0.0699
    1OPC    C4B70557  25.243   9.133   4.844 -0.1638  0.1676  0.2124
    1OPC    NC370558   3.919  24.219   2.617 -0.1542  0.0709 -0.1507
    1OPC    PO470559   3.454  24.208   2.720 -0.4183  0.0058 -0.0756
    1OPC    GL170560   3.685  24.411   3.057 -0.0380 -0.0829  0.1880
    1OPC    GL270561   3.844  24.644   3.250  0.2125  0.4146 -0.0646
    1OPC    C1B70562   3.895  24.733   3.691 -0.0123 -0.1080 -0.2555
    1OPC    D2B70563   3.833  24.580   4.094  0.2435  0.1658 -0.1908
    1OPC    C3B70564   3.653  24.211   4.165  0.0605  0.1513  0.0203
    1OPC    C4B70565   3.321  23.875   4.278 -0.2531 -0.0504 -0.2398
    1OPC    NC370566  22.023  21.696   3.383  0.3264  0.1129 -0.2748
    1OPC    PO470567  21.979  21.352   3.112  0.0975 -0.0532  0.1877
    1OPC    GL170568  22.093  21.201   3.575  0.0782 -0.0082  0.1044
    1OPC    GL270569  22.062  21.365   3.875  0.0210 -0.3877 -0.2435
    1OPC    C1B70570  22.032  21.652   4.271 -0.0160 -0.5159  0.2556
    1OPC    D2B70571  22.272  22.119   4.383 -0.0145  0.0417 -0.3854
    1OPC    C3B70572  22.366  22.171   4.819  0.0169 -0.0968 -0.2086
    1OPC    C4B70573  22.571  22.453   5.101 -0.0015  0.3140  0.3116
    1OPC    NC370574   6.763   2.739   2.370 -0.0551 -0.0344 -0.0518
    1OPC    PO470575   6.799   2.670   2.744  0.0406 -0.0418  0.2320
    1OPC    GL170576   6.636   2.760   3.241 -0.1203 -0.1451  0.1144
    1OPC    GL270577   6.471   2.716   3.487 -0.2457 -0.0393 -0.0656
    1OPC    C1B70578   6.442   2.772   3.922  0.0900 -0.0535  0.2177
    1OPC    D2B70579   6.644   3.098   4.177  0.3385  0.0759  0.2259
    1OPC    C3B70580   6.508   3.457   4.016 -0.1007  0.0115  0.3886
    1OPC    C4B70581   6.463   3.787   3.684 -0.2180  0.0078  0.2069
    1OPC    NC370582  22.829  10.602   2.705 -0.0713 -0.0581 -0.1146
    1OPC    PO470583  22.704  10.229   2.728  0.1619  0.1130  0.0577
    1OPC    GL170584  22.608  10.368   3.177  0.1070  0.1089 -0.0561
    1OPC    GL270585  22.635  10.540   3.356 -0.0561  0.0430 -0.5428
    1OPC    C1B70586  22.448  10.734   3.593 -0.1306  0.0418  0.0674
    1OPC    D2B70587  22.393  10.651   4.019  0.0394  0.0471  0.1111
    1OPC    C3B70588  22.631  10.389   4.303  0.4344 -0.2301 -0.0561
    1OPC    C4B70589  22.686  10.224   4.770 -0.0599 -0.0249  0.4957
    1OPC    NC370590   5.420  28.635   3.503 -0.2567  0.0131  0.5473
    1OPC    PO470591   5.766  28.815   3.605 -0.1929 -0.0847 -0.1972
    1OPC    GL170592   5.711  29.080   3.968  0.2040 -0.2506 -0.1567
    1OPC    GL270593   5.737  29.026   4.254  0.4349 -0.1857  0.1171
    1OPC    C1B70594   5.731  28.876   4.624  0.1772  0.2995  0.1924
    1OPC    D2B70595   5.612  29.126   4.959 -0.0258  0.0600  0.0624
    1OPC    C3B70596   5.372  29.441   4.818  0.2211  0.0211 -0.1418
    1OPC    C4B70597   5.263  29.858   4.659 -0.2030 -0.0562 -0.1613
    1OPC    NC370598  28.552  25.335   1.990  0.0190 -0.1468  0.2105
    1OPC    PO470599  28.262  25.359   2.350  0.0976  0.2934  0.3906
    1OPC    GL170600  28.239  25.524   2.851  0.2020 -0.0426 -0.3118
    1OPC    GL270601  28.201  25.747   3.078  0.0584 -0.2329 -0.0654
    1OPC    C1B70602  28.363  25.784   3.487 -0.0736  0.0374 -0.3461
    1OPC    D2B70603  28.291  25.743   3.921  0.0496 -0.0239  0.3372
    1OPC    C3B70604  28.026  25.898   4.234  0.1308 -0.2306 -0.1236
    1OPC    C4B70605  27.811  26.040   4.673 -0.0766  0.2980 -0.1866
    1OPC    NC370606  19.228  23.437   3.030 -0.3885  0.4666 -0.0260
    1OPC    PO470607  19.600  23.181   3.045  0.2771 -0.0930  0.0445
    1OPC    GL170608  19.408  23.018   3.329  0.1679 -0.0045 -0.1502
    1OPC    GL270609  19.237  23.036   3.634  0.0608 -0.0830 -0.0654
    1OPC    C1B70610  19.340  22.953   4.020 -0.0608 -0.1799 -0.5340
    1OPC    D2B70611  18.996  23.009   4.418  0.0203 -0.1771  0.2403
    1OPC    C3B70612  19.293  22.859   4.712 -0.0274 -0.1757  0.0502
    1OPC    C4B70613  19.519  22.884   5.018 -0.3101  0.1080  0.3550
    1OPC    NC370614   1.337  25.883   3.321 -0.1327 -0.0252 -0.0264
    1OPC    PO470615   0.975  26.043   3.157  0.1412 -0.0037 -0.1492
    1OPC    GL170616   0.867  25.897   3.542 -0.1257  0.1182 -0.5493
    1OPC    GL270617   0.806  25.642   3.690  0.1129 -0.2173  0.1253
    1OPC    C1B70618   0.818  25.392   3.895 -0.0264  0.1461  0.0025
    1OPC    D2B70619   0.503  25.123   4.069 -0.2799  0.2244  0.1536
    1OPC    C3B70620   0.421  24.837   4.429  0.3480 -0.3229 -0.2213
    1OPC    C4B70621   0.400  24.310   4.556 -0.0194 -0.2123 -0.0102
    1OPC    NC370622   6.363  24.929   2.301  0.0368 -0.1827 -0.2595
    1OPC    PO470623   6.466  25.295   2.586 -0.0423 -0.0970 -0.1386
    1OPC    GL170624   6.209  25.317   2.946 -0.1089  0.1909 -0.0330
    1OPC    GL270625   6.195  25.201   3.224  0.3481 -0.1142 -0.0359
    1OPC    C1B70626   6.283  25.046   3.682  0.0453  0.0367 -0.1977
    1OPC    D2B70627   6.380  25.051   4.206 -0.1150  0.0432 -0.0910
    1OPC    C3B70628   6.803  24.916   4.289 -0.4095 -0.0117 -0.2735
    1OPC    C4B70629   6.983  24.643   4.559 -0.2231  0.0038 -0.2045
    1OPC    NC370630  26.101  11.226   1.655 -0.0178 -0.3359  0.0548
    1OPC    PO470631  26.293  11.136   2.034 -0.0005 -0.1087  0.1779
    1OPC    GL170632  26.160  11.275   2.469  0.2600  0.3408 -0.0333
    1OPC    GL270633  25.906  11.209   2.625  0.4715 -0.2160 -0.1720
    1OPC    C1B70634  25.925  10.948   3.093 -0.1698  0.1082 -0.4273
    1OPC    D2B70635  25.997  10.834   3.538  0.1716 -0.0913 -0.1319
    1OPC    C3B70636  25.593  10.786   3.750 -0.3781 -0.2001 -0.3085
    1OPC    C4B70637  25.199  10.585   3.902  0.4643  0.1728  0.0662
    1OPC    NC370638   8.539   6.651   2.579  0.0474  0.0878  0.0236
    1OPC    PO470639   8.837   6.432   2.974 -0.0694 -0.2702 -0.1791
    1OPC    GL170640   9.164   6.519   3.255 -0.1593  0.3521 -0.1563
    1OPC    GL270641   9.177   6.590   3.629 -0.1408 -0.0948 -0.2135
    1OPC    C1B70642   9.349   6.599   4.073  0.1958 -0.0646  0.1147
    1OPC    D2B70643   9.301   6.564   4.543  0.1008 -0.2476 -0.3380
    1OPC    C3B70644   8.833   6.483   4.480  0.0581  0.2524  0.2040
    1OPC    C4B70645   8.452   6.751   4.713 -0.0248 -0.1789  0.0529
    1OPC    NC370646   8.285   9.603   2.798 -0.3917 -0.1958 -0.0024
    1OPC    PO470647   8.686   9.837   2.697 -0.2937  0.0025 -0.1048
    1OPC    GL170648   8.711   9.345   2.903 -0.3358  0.1225  0.0091
    1OPC    GL270649   8.461   9.158   3.031  0.0521 -0.0659 -0.0387
    1OPC    C1B70650   8.143   9.176   3.367 -0.1496  0.1725 -0.2751
    1OPC    D2B70651   7.672   8.973   3.504 -0.3398 -0.0186 -0.1643
    1OPC    C3B70652   7.434   9.214   3.824  0.1967  0.0987  0.0672
    1OPC    C4B70653   7.056   9.375   4.141  0.0598  0.1006  0.1500
    1OPC    NC370654  11.392  27.806   3.858 -0.2982  0.0588 -0.1026
    1OPC    PO470655  11.164  28.183   3.874  0.1591 -0.1273 -0.1315
    1OPC    GL170656  10.931  28.362   4.228  0.0406 -0.6250 -0.2119
    1OPC    GL270657  10.734  28.466   4.451 -0.0764 -0.2167 -0.1970
    1OPC    C1B70658  10.497  28.259   4.713  0.2349 -0.0072 -0.2371
    1OPC    D2B70659  10.412  28.201   5.109  0.1844 -0.1652  0.1223
    1OPC    C3B70660  10.419  27.810   5.271  0.1219  0.3789 -0.0890
    1OPC    C4B70661  10.090  27.539   5.450 -0.2195  0.0264  0.0943
    1OPC    NC370662   4.106  12.860   2.434 -0.0134  0.2912 -0.0532
    1OPC    PO470663   3.804  12.888   2.785  0.1453 -0.0033  0.0508
    1OPC    GL170664   3.966  12.795   3.250  0.2053  0.2532  0.0924
    1OPC    GL270665   3.905  12.840   3.547 -0.1309  0.1472 -0.1891
    1OPC    C1B70666   3.728  12.619   3.999  0.2665  0.0992  0.1393
    1OPC    D2B70667   3.504  12.337   4.213  0.3310  0.1022 -0.2227
    1OPC    C3B70668   3.405  12.164   3.868  0.0987 -0.0526 -0.0501
    1OPC    C4B70669   3.130  11.937   3.727 -0.1442 -0.1843  0.4398
    1OPC    NC370670   6.814  10.893   3.135  0.2940 -0.0024  0.0817
    1OPC    PO470671   6.716  11.333   2.931  0.0820 -0.0162 -0.1049
    1OPC    GL170672   6.679  11.358   3.416 -0.2762 -0.0407 -0.0828
    1OPC    GL270673   6.516  11.630   3.568  0.1288  0.2045 -0.0577
    1OPC    C1B70674   6.536  11.801   3.955  0.0456 -0.0838  0.1399
    1OPC    D2B70675   6.515  12.135   4.279  0.2549 -0.2045 -0.1499
    1OPC    C3B70676   6.450  11.801   4.651  0.1043  0.1523 -0.1611
    1OPC    C4B70677   6.285  11.464   4.744  0.1226 -0.0288 -0.0498
    1OPC    NC370678   4.005  19.286   1.994 -0.0955 -0.0397  0.1538
    1OPC    PO470679   4.385  19.203   1.747  0.1757  0.1881  0.0047
    1OPC    GL170680   4.524  19.084   2.104 -0.1315  0.0636  0.1447
    1OPC    GL270681   4.494  18.962   2.526 -0.0495  0.1908  0.3577
    1OPC    C1B70682   4.605  19.022   2.937  0.0513 -0.1742  0.2166
    1OPC    D2B70683   4.444  18.908   3.350 -0.1811  0.0206 -0.1186
    1OPC    C3B70684   4.095  19.198   3.623  0.2179  0.0554  0.0538
    1OPC    C4B70685   3.708  19.329   3.426  0.2632  0.1287  0.0796
    1OPC    NC370686   6.130  18.139   1.715  0.0332 -0.0148 -0.0670
    1OPC    PO470687   5.908  17.909   2.073  0.0790  0.0075 -0.0605
    1OPC    GL170688   5.793  17.758   2.536 -0.1376  0.0229 -0.0949
    1OPC    GL270689   5.643  17.663   2.751 -0.1928  0.1543 -0.0419
    1OPC    C1B70690   5.679  17.525   3.106 -0.1134  0.0206 -0.3129
    1OPC    D2B70691   5.992  17.499   3.337  0.0880 -0.1219 -0.0012
    1OPC    C3B70692   6.068  17.664   3.712 -0.2156  0.4464 -0.1066
    1OPC    C4B70693   5.977  17.953   4.098 -0.0509  0.2023  0.2162
    1OPC    NC370694  20.664  20.599   3.050  0.2488  0.0058  0.1567
    1OPC    PO470695  20.773  20.211   3.168  0.1234  0.2808 -0.0053
    1OPC    GL170696  20.784  20.429   3.558 -0.2757  0.2263 -0.0873
    1OPC    GL270697  20.580  20.484   3.773 -0.1302 -0.2105 -0.0232
    1OPC    C1B70698  20.459  20.394   4.268 -0.2206 -0.1759 -0.0613
    1OPC    D2B70699  20.321  20.536   4.665 -0.0177  0.1346 -0.0032
    1OPC    C3B70700  20.364  20.279   5.007 -0.1815  0.1231 -0.4000
    1OPC    C4B70701  20.386  20.249   5.490 -0.1794  0.0512 -0.0304
    1OPC    NC370702  22.423  22.553   3.643 -0.3244 -0.0655  0.1892
    1OPC    PO470703  22.300  22.792   3.329 -0.1161  0.2518  0.0914
    1OPC    GL170704  22.396  23.071   3.622  0.0402  0.2339  0.2569
    1OPC    GL270705  22.388  22.952   3.953 -0.4267  0.0622 -0.1750
    1OPC    C1B70706  21.978  23.075   4.248 -0.1649 -0.2571 -0.1594
    1OPC    D2B70707  21.933  23.012   4.668 -0.2478 -0.4168  0.0427
    1OPC    C3B70708  21.763  23.278   4.892  0.0776  0.1912 -0.3425
    1OPC    C4B70709  21.707  23.524   5.263  0.2380  0.0622  0.0758
    1OPC    NC370710   3.346  16.600   1.867 -0.4621  0.1120  0.4032
    1OPC    PO470711   3.016  16.450   2.041  0.0950  0.1341  0.0419
    1OPC    GL170712   2.867  16.405   2.501 -0.2992  0.0942 -0.1501
    1OPC    GL270713   2.910  16.547   2.770 -0.2407 -0.0499 -0.0191
    1OPC    C1B70714   2.816  16.753   3.147  0.1740 -0.0457 -0.0477
    1OPC    D2B70715   2.575  17.132   3.350  0.0817 -0.2818 -0.3799
    1OPC    C3B70716   2.417  17.039   3.772 -0.1878  0.1635  0.1824
    1OPC    C4B70717   2.102  17.066   3.993 -0.0683 -0.1370  0.0065
    1OPC    NC370718  10.986   3.680   3.313 -0.1723  0.1896  0.0975
    1OPC    PO470719  11.170   3.656   3.727 -0.0015  0.1098 -0.0760
    1OPC    GL170720  11.063   3.600   4.155 -0.2410  0.3349 -0.4552
    1OPC    GL270721  10.951   3.747   4.460 -0.1348 -0.0408  0.0045
    1OPC    C1B70722  11.014   3.734   4.921  0.1934  0.1807  0.1720
    1OPC    D2B70723  10.883   3.359   5.253 -0.2238  0.1846 -0.1270
    1OPC    C3B70724  10.935   3.346   5.797 -0.0604  0.1097 -0.1161
    1OPC    C4B70725  10.877   3.440   6.089  0.0787 -0.0347 -0.0433
    1OPC    NC370726  24.451  20.868   2.640  0.1318 -0.1282 -0.0012
    1OPC    PO470727  24.689  20.662   2.919  0.1023 -0.0149  0.1168
    1OPC    GL170728  24.611  20.418   3.282 -0.2063  0.1978  0.1623
    1OPC    GL270729  24.577  20.348   3.584 -0.0467  0.1707 -0.4167
    1OPC    C1B70730  24.534  19.898   3.833  0.1144 -0.4878  0.0865
    1OPC    D2B70731  24.404  19.512   3.709 -0.0064  0.0008 -0.2342
    1OPC    C3B70732  24.258  19.351   3.983  0.2151  0.0192 -0.0377
    1OPC    C4B70733  23.981  19.144   4.326  0.0856  0.2566  0.1634
    1OPC    NC370734  10.026  23.083   2.046  0.0446 -0.0189  0.3392
    1OPC    PO470735  10.095  22.685   2.234  0.1933 -0.1907 -0.2219
    1OPC    GL170736  10.101  22.928   2.576  0.1145  0.2851 -0.0675
    1OPC    GL270737  10.319  22.845   2.885 -0.0391  0.1567 -0.0829
    1OPC    C1B70738  10.263  22.660   3.236  0.3250 -0.0070 -0.0486
    1OPC    D2B70739  10.155  22.531   3.660 -0.2818 -0.0625 -0.2364
    1OPC    C3B70740  10.286  22.768   4.060 -0.1136 -0.2306  0.0307
    1OPC    C4B70741  10.291  22.571   4.531 -0.0645 -0.1161  0.1821
    1OPC    NC370742   3.507  14.216   1.820  0.2869  0.0143 -0.0406
    1OPC    PO470743   3.250  14.089   2.293 -0.0547  0.1597  0.1096
    1OPC    GL170744   3.029  14.297   2.624 -0.3985 -0.1784 -0.0795
    1OPC    GL270745   3.007  14.428   2.910 -0.3688 -0.2385 -0.0339
    1OPC    C1B70746   2.715  14.632   3.194  0.1521  0.0195 -0.1065
    1OPC    D2B70747   2.559  14.787   3.600 -0.0712  0.0679  0.0314
    1OPC    C3B70748   2.115  14.825   3.879  0.1001 -0.0861  0.0351
    1OPC    C4B70749   1.965  15.205   4.053  0.1549  0.1850 -0.0451
    1OPC    NC370750   5.227   1.764   3.375  0.1536  0.1383 -0.1722
    1OPC    PO470751   5.253   1.346   3.314  0.0172  0.1282  0.1795
    1OPC    GL170752   5.187   1.423   3.820  0.2409  0.0303 -0.0816
    1OPC    GL270753   5.123   1.401   4.089 -0.1639 -0.1276 -0.3237
    1OPC    C1B70754   5.191   1.537   4.548  0.0148  0.1231 -0.0787
    1OPC    D2B70755   5.419   1.533   4.901  0.2680 -0.1457 -0.1079
    1OPC    C3B70756   5.948   1.620   4.894 -0.0319  0.0426  0.1490
    1OPC    C4B70757   6.149   1.619   5.153 -0.0898 -0.0596  0.1667
    1OPC    NC370758   6.219  28.091   3.252 -0.1603 -0.0388  0.0503
    1OPC    PO470759   6.596  28.349   3.264  0.1216 -0.0804 -0.1809
    1OPC    GL170760   6.850  28.127   3.493  0.3405 -0.3453 -0.0396
    1OPC    GL270761   6.911  28.131   3.828  0.2686  0.1628  0.0176
    1OPC    C1B70762   6.652  28.053   4.124  0.0107 -0.0737  0.1980
    1OPC    D2B70763   6.400  28.263   4.426  0.1778  0.3376 -0.1134
    1OPC    C3B70764   6.303  28.233   4.749 -0.1903  0.0140  0.0384
    1OPC    C4B70765   6.341  28.358   5.259  0.0528  0.0447  0.1447
    1OPC    NC370766   5.842   1.159   3.191  0.1066  0.2341  0.2270
    1OPC    PO470767   5.608   0.815   3.428  0.4480 -0.0699 -0.2596
    1OPC    GL170768   5.780   0.715   3.793  0.2659 -0.2571 -0.1770
    1OPC    GL270769   6.052   0.606   3.926 -0.3786  0.0832  0.2672
    1OPC    C1B70770   6.389   0.616   4.221 -0.3280  0.0191 -0.2886
    1OPC    D2B70771   6.471   0.745   4.616  0.1790  0.1644  0.1687
    1OPC    C3B70772   6.153   0.572   4.980 -0.0491 -0.0437 -0.1386
    1OPC    C4B70773   6.215   0.455   5.390  0.0657  0.1070 -0.2334
    1OPC    NC370774   9.250   4.505   2.564 -0.1201  0.1317  0.5643
    1OPC    PO470775   9.209   4.487   3.048  0.3503 -0.0775 -0.1303
    1OPC    GL170776   9.007   4.445   3.479  0.0781 -0.0417  0.1426
    1OPC    GL270777   8.875   4.369   3.714 -0.2021  0.3326 -0.1205
    1OPC    C1B70778   8.724   4.120   4.101  0.1588 -0.0448 -0.0177
    1OPC    D2B70779   8.930   3.900   4.448 -0.0620  0.0099 -0.0760
    1OPC    C3B70780   8.847   3.926   4.910 -0.0626  0.0513  0.3440
    1OPC    C4B70781   9.005   3.797   5.308  0.4342  0.0397  0.2092
    1OPC    NC370782   3.809  10.344   2.314 -0.1094  0.0705  0.0412
    1OPC    PO470783   3.747  10.086   2.673 -0.1579  0.0035 -0.1071
    1OPC    GL170784   3.638   9.876   3.052 -0.1891  0.1641  0.1200
    1OPC    GL270785   3.524   9.849   3.237 -0.1525  0.0878  0.3042
    1OPC    C1B70786   3.304   9.615   3.494  0.0902  0.0570 -0.1497
    1OPC    D2B70787   3.200   9.578   3.911 -0.2792 -0.0238 -0.1084
    1OPC    C3B70788   2.802   9.604   4.078 -0.1035  0.3873 -0.3749
    1OPC    C4B70789   2.615   9.571   4.555  0.3443  0.0570  0.2897
    1OPC    NC370790  29.315  13.178   2.412  0.0753  0.4221  0.1448
    1OPC    PO470791  29.012  12.906   2.703 -0.0564 -0.0119  0.0570
    1OPC    GL170792  28.644  13.144   2.900  0.0946  0.2634 -0.0532
    1OPC    GL270793  28.507  13.171   3.152  0.4752  0.2720  0.1222
    1OPC    C1B70794  28.630  13.206   3.580 -0.0573 -0.0711  0.1087
    1OPC    D2B70795  28.973  13.429   3.796  0.0326  0.1467  0.0314
    1OPC    C3B70796  29.027  13.645   4.163  0.0026 -0.0405  0.2283
    1OPC    C4B70797  29.052  14.074   4.153  0.1013  0.0951 -0.0056
    1OPC    NC370798  19.849   1.244   3.450  0.2127 -0.0728  0.2856
    1OPC    PO470799  19.935   1.339   3.080  0.0025  0.1455 -0.0894
    1OPC    GL170800  19.912   1.786   3.215 -0.0633  0.2252 -0.0695
    1OPC    GL270801  20.118   1.969   3.387 -0.1423 -0.2071 -0.1648
    1OPC    C1B70802  20.258   2.165   3.717  0.1082 -0.2367 -0.1370
    1OPC    D2B70803  20.455   2.506   4.024  0.0943  0.1351 -0.1620
    1OPC    C3B70804  20.697   2.462   4.306 -0.0790 -0.2514  0.1237
    1OPC    C4B70805  21.056   2.199   4.489 -0.2604  0.0823 -0.2486
    1OPC    NC370806  26.769  17.110   2.398 -0.2875 -0.0108  0.0310
    1OPC    PO470807  26.416  17.261   2.276 -0.0110 -0.2965 -0.0088
    1OPC    GL170808  26.201  16.920   2.567  0.0407 -0.1186 -0.0659
    1OPC    GL270809  26.126  16.866   2.804  0.3572  0.0212  0.0493
    1OPC    C1B70810  25.989  16.744   3.211  0.2400 -0.0489  0.0069
    1OPC    D2B70811  26.089  16.713   3.685 -0.0207 -0.2256 -0.1795
    1OPC    C3B70812  26.286  17.022   3.936 -0.2327  0.1280 -0.0434
    1OPC    C4B70813  26.303  17.392   4.193  0.3923 -0.1991  0.2014
    1OPC    NC370814  12.318   0.143   3.858 -0.0163  0.0194  0.1273
    1OPC    PO470815  11.989   0.408   3.729 -0.0267 -0.0155  0.1609
    1OPC    GL170816  12.071   0.466   4.137 -0.0729 -0.2530 -0.1686
    1OPC    GL270817  12.361   0.500   4.310 -0.0759  0.1238 -0.1724
    1OPC    C1B70818  12.424   0.618   4.698  0.1553 -0.1754  0.1667
    1OPC    D2B70819  12.586   0.596   5.072 -0.2264 -0.0959 -0.1255
    1OPC    C3B70820  12.380   0.985   5.214  0.0606  0.2853  0.0746
    1OPC    C4B70821  12.217   1.213   5.603 -0.1072  0.0479  0.0390
    1OPC    NC370822   5.477   8.012   2.808 -0.3375 -0.0055 -0.1079
    1OPC    PO470823   5.099   8.099   2.653  0.2079 -0.4378  0.0052
    1OPC    GL170824   5.315   8.506   2.800  0.1290  0.2006 -0.2317
    1OPC    GL270825   5.304   8.726   3.074  0.0488 -0.1715 -0.0732
    1OPC    C1B70826   5.175   8.908   3.526  0.2677 -0.0274 -0.2616
    1OPC    D2B70827   5.357   8.979   3.869  0.0450  0.1210 -0.0140
    1OPC    C3B70828   5.122   9.192   4.262 -0.0152  0.1129 -0.0869
    1OPC    C4B70829   4.794   9.367   4.512  0.0637  0.0717 -0.1175
    1OPC    NC370830  24.919   6.235   2.645  0.0510  0.3318  0.0922
    1OPC    PO470831  24.510   6.503   2.533 -0.2163 -0.1497  0.2561
    1OPC    GL170832  24.871   6.721   2.730 -0.1454 -0.0368 -0.0870
    1OPC    GL270833  25.120   6.732   2.827  0.0978 -0.3387 -0.0678
    1OPC    C1B70834  25.420   6.849   3.128 -0.2821 -0.1961  0.0055
    1OPC    D2B70835  25.800   7.064   3.249  0.2048  0.0555  0.1652
    1OPC    C3B70836  25.916   7.452   3.397 -0.0338 -0.0481  0.2321
    1OPC    C4B70837  26.018   7.858   3.156  0.0689  0.2679 -0.1817
    1OPC    NC370838   8.302   2.639   3.135 -0.0650 -0.3434  0.1754
    1OPC    PO470839   8.261   3.046   3.147 -0.3878 -0.3591  0.0557
    1OPC    GL170840   7.892   3.137   3.532 -0.0544  0.1559 -0.4420
    1OPC    GL270841   7.863   3.020   3.780  0.5815 -0.1480 -0.2823
    1OPC    C1B70842   7.575   2.753   4.014 -0.0351  0.0610 -0.1173
    1OPC    D2B70843   7.345   2.480   4.347  0.0994 -0.0921  0.0353
    1OPC    C3B70844   7.386   2.207   4.724  0.0576  0.1746 -0.0837
    1OPC    C4B70845   7.242   2.127   5.064  0.1571 -0.2054  0.1275
    1OPC    NC370846   0.088   7.355   2.564  0.2284 -0.0719 -0.2188
    1OPC    PO470847  -0.347   7.190   2.674  0.0957  0.1380 -0.1434
    1OPC    GL170848  -0.253   7.005   3.011  0.1060 -0.0188  0.3623
    1OPC    GL270849  -0.105   6.715   3.092  0.4189 -0.1056  0.2434
    1OPC    C1B70850  -0.131   6.360   3.258  0.1275 -0.3619 -0.3663
    1OPC    D2B70851  -0.260   6.237   3.613  0.0038  0.1726  0.2159
    1OPC    C3B70852  -0.722   6.087   3.643 -0.0675  0.1969 -0.3673
    1OPC    C4B70853  -1.031   5.968   3.873 -0.4048  0.0651 -0.4536
    1OPC    NC370854  12.183   3.028   3.690 -0.1111 -0.2371  0.0920
    1OPC    PO470855  11.741   3.009   3.407 -0.3079 -0.1772 -0.1910
    1OPC    GL170856  11.716   3.283   3.673  0.1393 -0.1634 -0.1534
    1OPC    GL270857  11.630   3.493   3.867  0.0183  0.2442  0.1940
    1OPC    C1B70858  11.641   3.527   4.212  0.0453 -0.1333  0.0182
    1OPC    D2B70859  11.581   3.388   4.686 -0.0067  0.2741  0.0534
    1OPC    C3B70860  11.290   3.251   4.990 -0.0861  0.2117 -0.0503
    1OPC    C4B70861  11.091   2.875   5.146  0.0566 -0.0193 -0.4460
    1OPC    NC370862  26.505   8.625   1.495  0.1352  0.2511  0.0488
    1OPC    PO470863  26.275   8.502   1.963 -0.0179  0.0822  0.0770
    1OPC    GL170864  26.243   8.364   2.372  0.1091  0.0254 -0.3392
    1OPC    GL270865  26.176   8.243   2.689  0.1270  0.2654  0.0411
    1OPC    C1B70866  25.918   8.435   3.104 -0.1558  0.0553  0.2517
    1OPC    D2B70867  25.614   8.232   3.453 -0.0358 -0.2897  0.0620
    1OPC    C3B70868  25.593   8.298   3.901  0.4937  0.0699 -0.2257
    1OPC    C4B70869  25.264   8.092   4.177  0.3424 -0.0437  0.0121
    1OPC    NC370870   4.377  13.748   2.146  0.2157  0.3728  0.0532
    1OPC    PO470871   4.445  13.571   2.574  0.1227  0.0312 -0.0808
    1OPC    GL170872   4.608  13.475   2.962 -0.2645 -0.0078 -0.0329
    1OPC    GL270873   4.559  13.474   3.151 -0.1575 -0.1723 -0.2201
    1OPC    C1B70874   4.395  13.559   3.595  0.0871  0.0907 -0.0011
    1OPC    D2B70875   4.562  13.838   3.828  0.1704 -0.1231  0.3947
    1OPC    C3B70876   4.411  13.866   4.207  0.0479 -0.0100 -0.0013
    1OPC    C4B70877   4.625  13.732   4.597  0.3022  0.1723 -0.3773
    1OPC    NC370878  19.863  20.095   3.190  0.1302 -0.2443 -0.0708
    1OPC    PO470879  20.022  19.682   3.190 -0.1659  0.2512  0.1143
    1OPC    GL170880  19.956  19.921   3.622  0.0917  0.0419 -0.0694
    1OPC    GL270881  20.148  20.101   3.802  0.5370  0.0236  0.1311
    1OPC    C1B70882  20.270  19.891   4.181  0.0987  0.1013  0.2542
    1OPC    D2B70883  20.484  19.986   4.544  0.0016  0.1725 -0.0543
    1OPC    C3B70884  20.273  19.754   4.886  0.1783 -0.2266  0.0929
    1OPC    C4B70885  20.305  19.384   5.144 -0.0703 -0.1291  0.2421
    1OPC    NC370886  26.515   6.148   2.613  0.1956 -0.4039 -0.0115
    1OPC    PO470887  26.896   6.275   2.440  0.4831  0.1260 -0.1072
    1OPC    GL170888  27.023   6.038   2.775  0.0713 -0.0385  0.1634
    1OPC    GL270889  27.111   5.788   2.966 -0.1537  0.0363  0.0514
    1OPC    C1B70890  27.286   5.892   3.445 -0.1291 -0.1323  0.2229
    1OPC    D2B70891  27.192   6.283   3.617  0.0020  0.1664 -0.3484
    1OPC    C3B70892  27.151   6.432   3.957 -0.0301 -0.2427 -0.2507
    1OPC    C4B70893  26.914   6.584   4.246  0.4218  0.1149  0.3342
    1OPC    NC370894   2.128  24.100   2.572  0.1087  0.4015  0.1267
    1OPC    PO470895   2.134  23.678   2.775 -0.0969  0.2581  0.0833
    1OPC    GL170896   2.439  23.802   2.946 -0.2375 -0.0139 -0.0536
    1OPC    GL270897   2.596  23.677   3.180 -0.0338 -0.0350  0.0963
    1OPC    C1B70898   2.632  23.441   3.478 -0.2952 -0.0746  0.1006
    1OPC    D2B70899   2.661  23.426   3.897 -0.1449 -0.0888 -0.2452
    1OPC    C3B70900   2.642  23.023   4.034  0.3161  0.2354 -0.0635
    1OPC    C4B70901   2.920  22.712   4.204 -0.0338  0.1891 -0.1678
    1OPC    NC370902  11.526   1.681   3.020 -0.0567 -0.0722  0.1686
    1OPC    PO470903  11.823   1.668   3.290 -0.1651  0.2313  0.2995
    1OPC    GL170904  11.695   1.831   3.701 -0.2779  0.0191  0.0682
    1OPC    GL270905  11.487   1.960   3.968 -0.2402 -0.2060 -0.0502
    1OPC    C1B70906  11.343   2.203   4.345 -0.0532 -0.1658  0.1918
    1OPC    D2B70907  11.293   2.312   4.713  0.1006 -0.3455 -0.1738
    1OPC    C3B70908  11.358   2.177   5.078  0.0632 -0.0067  0.2548
    1OPC    C4B70909  11.427   1.824   5.177  0.1332 -0.0728  0.1170
    1OPC    NC370910  25.264  29.207   2.338 -0.0913  0.0611 -0.1651
    1OPC    PO470911  25.333  29.409   2.681  0.4015  0.0152  0.0132
    1OPC    GL170912  25.085  29.328   2.948 -0.0317  0.2091 -0.3157
    1OPC    GL270913  25.084  29.414   3.361  0.1646  0.2117 -0.1155
    1OPC    C1B70914  25.472  29.263   3.624 -0.2890  0.0077 -0.3256
    1OPC    D2B70915  25.630  29.207   4.115 -0.1483  0.3186 -0.1590
    1OPC    C3B70916  26.060  29.170   4.088 -0.0793  0.0383 -0.2512
    1OPC    C4B70917  26.489  29.229   3.921  0.2322  0.1117 -0.0568
    1OPC    NC370918  27.222  22.820   3.074  0.0108  0.0646  0.1363
    1OPC    PO470919  27.443  23.321   3.006  0.0920  0.1630  0.0885
    1OPC    GL170920  27.059  23.520   3.261  0.1047  0.0961 -0.0922
    1OPC    GL270921  27.024  23.655   3.532 -0.0749  0.2097  0.2482
    1OPC    C1B70922  26.960  23.831   3.888  0.0648 -0.0593 -0.0990
    1OPC    D2B70923  26.736  23.786   4.347 -0.0144 -0.1909 -0.1497
    1OPC    C3B70924  26.700  23.637   4.695 -0.1731 -0.1653  0.0594
    1OPC    C4B70925  26.894  23.198   4.706  0.2270 -0.5491 -0.0618
    1OPC    NC370926  21.158  22.238   2.423 -0.0297  0.2036 -0.2810
    1OPC    PO470927  20.902  22.242   2.667  0.1775  0.3076  0.0264
    1OPC    GL170928  20.684  22.315   2.986  0.3251  0.0963  0.0510
    1OPC    GL270929  20.538  22.270   3.282  0.2290 -0.2849  0.2497
    1OPC    C1B70930  20.589  22.372   3.694 -0.3048  0.4154 -0.0935
    1OPC    D2B70931  20.708  22.144   4.025 -0.0607 -0.2189 -0.0633
    1OPC    C3B70932  20.547  22.170   4.384 -0.0564  0.1789 -0.2055
    1OPC    C4B70933  20.438  22.137   4.784 -0.0551  0.0299 -0.0562
    1OPC    NC370934  23.776   0.317   2.257  0.2541 -0.1713 -0.2812
    1OPC    PO470935  24.160   0.357   2.300  0.0432 -0.0070 -0.3107
    1OPC    GL170936  24.166   0.301   2.750  0.0567 -0.4777 -0.0953
    1OPC    GL270937  23.906   0.176   2.954  0.1502  0.3555 -0.1897
    1OPC    C1B70938  23.617   0.312   3.315 -0.1680 -0.1194 -0.1211
    1OPC    D2B70939  23.726   0.011   3.674 -0.0701  0.0065  0.1075
    1OPC    C3B70940  23.557  -0.020   3.957 -0.0189 -0.1789 -0.2377
    1OPC    C4B70941  23.469   0.270   4.253 -0.0342  0.2722 -0.0138
    1OPC    NC370942  22.919   8.732   1.854  0.1562 -0.0354  0.2908
    1OPC    PO470943  23.262   8.845   2.298 -0.0090  0.0893  0.1229
    1OPC    GL170944  23.509   8.630   2.711 -0.1113  0.0934 -0.0102
    1OPC    GL270945  23.589   8.486   3.055 -0.1175 -0.1378  0.1410
    1OPC    C1B70946  23.510   8.588   3.530 -0.0026  0.2588  0.0814
    1OPC    D2B70947  23.772   8.718   3.844 -0.0801 -0.0171 -0.2295
    1OPC    C3B70948  23.759   8.652   4.347 -0.0552 -0.4632  0.0702
    1OPC    C4B70949  23.478   8.384   4.469  0.3866 -0.1862  0.1224
    1OPC    NC370950  19.448  29.198   3.300  0.5606  0.0276 -0.5602
    1OPC    PO470951  19.372  28.776   3.161 -0.2433 -0.1027 -0.1945
    1OPC    GL170952  19.808  28.803   3.318 -0.2024 -0.3310  0.0126
    1OPC    GL270953  20.022  28.866   3.540 -0.0620 -0.3089  0.2170
    1OPC    C1B70954  20.260  29.146   3.852 -0.1117  0.0548  0.0350
    1OPC    D2B70955  20.594  29.418   3.806 -0.2730 -0.2331  0.0299
    1OPC    C3B70956  20.985  29.678   3.766 -0.1339 -0.0416  0.1841
    1OPC    C4B70957  21.173  30.086   3.696  0.1236 -0.0959 -0.1236
    1OPC    NC370958  14.266  28.289   4.214  0.2302 -0.3103  0.0827
    1OPC    PO470959  14.506  28.719   4.259 -0.0604  0.1091 -0.2592
    1OPC    GL170960  14.547  28.602   4.669 -0.1489  0.1380 -0.2508
    1OPC    GL270961  14.515  28.535   4.961 -0.1724 -0.0879  0.3556
    1OPC    C1B70962  14.502  28.680   5.308  0.0178 -0.2416 -0.0361
    1OPC    D2B70963  14.171  28.757   5.616  0.0793  0.1660  0.0090
    1OPC    C3B70964  13.791  29.022   5.626 -0.1953 -0.1041  0.0330
    1OPC    C4B70965  13.392  29.149   5.833 -0.2047  0.1631 -0.0821
    1OPC    NC370966  27.526  20.680   2.162 -0.2946  0.0578  0.1452
    1OPC    PO470967  27.897  20.877   2.119  0.1670 -0.1397  0.1978
    1OPC    GL170968  27.741  20.883   2.536 -0.0822 -0.0063 -0.1103
    1OPC    GL270969  27.868  21.021   2.805 -0.0356 -0.1249  0.1255
    1OPC    C1B70970  27.821  21.032   3.317 -0.2368 -0.0106  0.0783
    1OPC    D2B70971  27.576  21.087   3.783 -0.0856 -0.0017  0.0164
    1OPC    C3B70972  27.665  21.343   4.103 -0.0345 -0.1853  0.1369
    1OPC    C4B70973  27.677  21.585   4.512 -0.2311 -0.1734  0.2678
    1OPC    NC370974  13.345   0.701   3.164 -0.3980  0.1240 -0.1060
    1OPC    PO470975  13.279   0.241   3.443 -0.2285  0.0383  0.2615
    1OPC    GL170976  13.218   0.410   3.914  0.0300 -0.2262  0.0745
    1OPC    GL270977  12.994   0.601   4.188  0.2135 -0.1007 -0.0405
    1OPC    C1B70978  12.913   0.652   4.553 -0.0267 -0.4696  0.0614
    1OPC    D2B70979  12.748   1.049   4.699 -0.1092  0.1968  0.1417
    1OPC    C3B70980  12.540   1.399   4.908  0.2373 -0.0884  0.0542
    1OPC    C4B70981  12.199   1.615   5.262  0.0138  0.1142 -0.1005
    1OPC    NC370982  18.538   3.971   3.259  0.2285 -0.2675 -0.1812
    1OPC    PO470983  18.899   4.027   2.940 -0.0273 -0.1393 -0.3738
    1OPC    GL170984  19.034   4.169   3.360 -0.4618  0.0535 -0.0683
    1OPC    GL270985  18.896   4.145   3.657 -0.0970  0.2477 -0.0664
    1OPC    C1B70986  18.478   4.331   3.892  0.2431 -0.0782  0.2739
    1OPC    D2B70987  18.353   4.441   4.220 -0.0977  0.0418  0.0011
    1OPC    C3B70988  18.523   4.114   4.472  0.0009 -0.0602 -0.0487
    1OPC    C4B70989  18.922   4.003   4.583  0.0823 -0.1352 -0.0656
    1OPC    NC370990  17.985  28.350   3.207 -0.0088 -0.1399 -0.0998
    1OPC    PO470991  18.302  28.302   3.542  0.1048  0.1450  0.1994
    1OPC    GL170992  18.191  28.160   3.954  0.0052  0.1249  0.0103
    1OPC    GL270993  18.273  28.087   4.222  0.0278 -0.5525  0.1671
    1OPC    C1B70994  18.396  28.416   4.497 -0.4197 -0.0930  0.2314
    1OPC    D2B70995  18.807  28.516   4.486 -0.1547  0.1880  0.2675
    1OPC    C3B70996  19.061  28.650   4.795 -0.1133 -0.1610  0.1399
    1OPC    C4B70997  19.390  28.668   5.016  0.2182  0.0098  0.0995
    1OPC    NC370998  24.143  21.443   3.171 -0.0095  0.0849  0.2806
    1OPC    PO470999  24.431  21.118   3.057  0.0737 -0.1218  0.0622
    1OPC    GL171000  24.358  20.878   3.390  0.0515  0.0029 -0.1759
    1OPC    GL271001  24.389  20.751   3.610 -0.1890 -0.3888 -0.2922
    1OPC    C1B71002  24.418  20.527   3.985 -0.1371 -0.0252 -0.2616
    1OPC    D2B71003  24.578  20.635   4.395 -0.3117  0.2804  0.1851
    1OPC    C3B71004  24.359  20.463   4.735  0.2822 -0.0707 -0.0921
    1OPC    C4B71005  24.481  20.458   5.078  0.0274 -0.0650 -0.1084
    1OPC    NC371006  12.484  28.628   3.812 -0.1516  0.1058  0.1555
    1OPC    PO471007  12.812  28.552   4.136  0.0071  0.0957 -0.2299
    1OPC    GL171008  12.627  28.203   4.118  0.1709  0.1161  0.0537
    1OPC    GL271009  12.590  28.115   4.478  0.2127 -0.1891  0.1296
    1OPC    C1B71010  12.803  28.161   4.832 -0.0732  0.2808 -0.1093
    1OPC    D2B71011  12.839  28.014   5.250 -0.2252 -0.2837 -0.0354
    1OPC    C3B71012  12.893  27.630   5.415  0.1443 -0.0651 -0.0834
    1OPC    C4B71013  13.067  27.364   5.835 -0.0516 -0.0612  0.1492
    1OPC    NC371014  28.495   4.450   2.134 -0.1445  0.1983 -0.0187
    1OPC    PO471015  28.865   4.495   2.447 -0.1137  0.0582  0.1197
    1OPC    GL171016  28.819   4.525   2.930 -0.0818 -0.1783  0.1745
    1OPC    GL271017  28.796   4.671   3.267  0.1681  0.0745 -0.2722
    1OPC    C1B71018  28.895   4.910   3.640  0.1867 -0.0734  0.0543
    1OPC    D2B71019  28.927   5.088   3.937  0.1146 -0.1688 -0.0076
    1OPC    C3B71020  28.646   5.361   3.907 -0.4491  0.2926  0.0904
    1OPC    C4B71021  28.468   5.610   3.630 -0.1185  0.0087 -0.0218
    1OPC    NC371022  24.806   3.258   1.899  0.0776  0.0948 -0.2885
    1OPC    PO471023  25.027   2.947   2.226  0.2324 -0.0242  0.2427
    1OPC    GL171024  25.024   2.932   2.674 -0.2128 -0.2264 -0.0604
    1OPC    GL271025  25.315   2.878   2.906 -0.0399 -0.2305  0.1214
    1OPC    C1B71026  25.616   3.081   3.193  0.2093  0.2408  0.1733
    1OPC    D2B71027  26.015   3.093   3.197 -0.0948  0.0338 -0.2587
    1OPC    C3B71028  26.227   3.494   3.376  0.0099 -0.0633  0.2388
    1OPC    C4B71029  26.522   3.766   3.666  0.0921  0.1005 -0.0163
    1OPC    NC371030  27.291  29.300   3.033 -0.3287 -0.1525 -0.0766
    1OPC    PO471031  26.945  29.525   3.023  0.1861  0.1129 -0.0694
    1OPC    GL171032  26.858  29.128   3.222  0.3654  0.1432  0.0716
    1OPC    GL271033  26.785  28.929   3.546  0.1670  0.0956 -0.1741
    1OPC    C1B71034  26.583  28.741   3.777 -0.2476 -0.0170 -0.1349
    1OPC    D2B71035  26.382  28.801   4.132 -0.1117 -0.0934 -0.1316
    1OPC    C3B71036  26.685  29.073   4.380  0.0387  0.2335 -0.2628
    1OPC    C4B71037  26.731  29.361   4.663  0.3608 -0.3220  0.0789
    1OPC    NC371038  25.347  26.681   3.027  0.2206 -0.0137  0.2418
    1OPC    PO471039  25.576  27.085   2.887  0.2912  0.1185 -0.1385
    1OPC    GL171040  25.094  27.117   3.100  0.0035 -0.3180 -0.0676
    1OPC    GL271041  24.845  27.356   3.204 -0.0858 -0.2030 -0.4398
    1OPC    C1B71042  24.502  27.486   3.544 -0.0497 -0.1869 -0.0822
    1OPC    D2B71043  24.045  27.297   3.759 -0.0341  0.0493  0.1815
    1OPC    C3B71044  23.934  27.263   4.273 -0.2532  0.1096  0.3597
    1OPC    C4B71045  23.906  27.564   4.605 -0.2126 -0.1566 -0.2514
    1OPC    NC371046  27.966  21.430   2.162  0.1256 -0.0342 -0.2410
    1OPC    PO471047  27.996  21.858   2.315 -0.0759  0.1611  0.0638
    1OPC    GL171048  27.890  21.883   2.695 -0.0242  0.0975 -0.1375
    1OPC    GL271049  28.054  21.936   3.066  0.1288 -0.2889 -0.0150
    1OPC    C1B71050  27.887  22.050   3.476 -0.1030  0.2780 -0.0204
    1OPC    D2B71051  27.752  22.448   3.743  0.0170  0.1273 -0.0209
    1OPC    C3B71052  27.704  22.297   4.210 -0.0354  0.1806 -0.3093
    1OPC    C4B71053  27.988  21.901   4.197 -0.0094 -0.0553 -0.0182
    1OPC    NC371054  12.174   2.073   3.292  0.0664 -0.0705  0.2460
    1OPC    PO471055  12.134   2.040   3.741  0.0320 -0.1073  0.1420
    1OPC    GL171056  11.748   2.364   3.920 -0.3061  0.0877  0.1287
    1OPC    GL271057  11.754   2.500   4.243 -0.2240  0.3788  0.0676
    1OPC    C1B71058  11.787   2.327   4.586 -0.1161  0.2011 -0.0912
    1OPC    D2B71059  11.941   2.046   4.881  0.0367 -0.1197  0.2660
    1OPC    C3B71060  11.745   2.185   5.354  0.0629  0.1877  0.0753
    1OPC    C4B71061  11.811   2.583   5.618  0.1595 -0.2059  0.1654
    1OPC    NC371062  26.470   2.010   2.634 -0.2900  0.0943  0.2379
    1OPC    PO471063  26.725   2.301   2.841 -0.0918  0.0859  0.1347
    1OPC    GL171064  26.806   2.630   3.071  0.0607 -0.0361 -0.1875
    1OPC    GL271065  26.709   2.887   3.288 -0.3292  0.1247 -0.0082
    1OPC    C1B71066  26.655   3.183   3.366 -0.0539 -0.4375 -0.0989
    1OPC    D2B71067  26.498   3.260   3.777 -0.1851 -0.1361 -0.0207
    1OPC    C3B71068  26.138   3.276   4.049  0.2899  0.0542  0.3994
    1OPC    C4B71069  25.757   3.320   4.369  0.0000  0.2993 -0.1566
    1OPC    NC371070   7.750  11.560   2.847 -0.0022 -0.1692 -0.0763
    1OPC    PO471071   7.784  11.407   3.283  0.0922  0.4301 -0.0098
    1OPC    GL171072   7.662  11.108   3.521 -0.4770  0.0603 -0.4947
    1OPC    GL271073   7.650  10.839   3.725  0.0636 -0.1613 -0.0519
    1OPC    C1B71074   7.583  10.557   3.979  0.2629  0.1008  0.0134
    1OPC    D2B71075   7.316  10.319   4.293 -0.0554 -0.0858  0.1571
    1OPC    C3B71076   7.310   9.940   4.410 -0.0187 -0.1893 -0.1754
    1OPC    C4B71077   7.137   9.707   4.634  0.0233 -0.0797  0.1276
    1OPC    NC371078   0.842  25.140   1.946  0.3093 -0.0564 -0.2475
    1OPC    PO471079   0.957  24.825   2.302  0.0276  0.0007 -0.1382
    1OPC    GL171080   0.874  24.376   2.532 -0.3033  0.0798 -0.1238
    1OPC    GL271081   0.906  24.301   2.852 -0.0408 -0.1109  0.0803
    1OPC    C1B71082   1.271  24.116   3.125  0.0574 -0.2426 -0.0980
    1OPC    D2B71083   1.512  24.239   3.519  0.3381  0.1612  0.2727
    1OPC    C3B71084   1.453  24.035   3.877  0.1655 -0.0639  0.3250
    1OPC    C4B71085   1.550  24.130   4.270 -0.1725  0.0027 -0.1849
    1OPC    NC371086  16.387   1.220   2.884 -0.0172 -0.1053  0.3655
    1OPC    PO471087  16.652   1.592   3.143 -0.1798 -0.1598  0.3144
    1OPC    GL171088  16.497   1.494   3.580 -0.0477  0.0793  0.2646
    1OPC    GL271089  16.725   1.406   3.899  0.1288 -0.2997 -0.0811
    1OPC    C1B71090  16.934   1.088   4.151 -0.2602 -0.0212  0.4972
    1OPC    D2B71091  17.327   0.987   4.399  0.0014 -0.3071  0.1114
    1OPC    C3B71092  17.619   0.800   4.617  0.0788 -0.1702 -0.2066
    1OPC    C4B71093  17.935   0.912   4.892 -0.0035 -0.1854  0.2229
    1OPC    NC371094   2.060  22.138   1.818 -0.1135 -0.0460 -0.2153
    1OPC    PO471095   1.867  22.093   2.169 -0.4579  0.0194  0.2048
    1OPC    GL171096   1.690  22.471   2.408  0.0034 -0.0490 -0.2165
    1OPC    GL271097   1.685  22.646   2.681 -0.1825 -0.1592  0.0680
    1OPC    C1B71098   1.657  22.666   3.068 -0.0611 -0.2604  0.0778
    1OPC    D2B71099   1.461  22.741   3.477  0.0426  0.1404  0.2874
    1OPC    C3B71100   1.729  22.797   3.768 -0.0644  0.0382 -0.2266
    1OPC    C4B71101   2.114  22.645   3.908 -0.1567 -0.0787 -0.1881
    1OPC    NC371102  10.367   2.825   3.249  0.1465  0.0366 -0.0007
    1OPC    PO471103   9.957   2.813   3.187 -0.3244  0.1704  0.2765
    1OPC    GL171104  10.055   2.645   3.593  0.1936  0.0966  0.1880
    1OPC    GL271105   9.975   2.614   3.869 -0.0936  0.0078 -0.1221
    1OPC    C1B71106   9.898   2.480   4.240 -0.0436  0.0534 -0.0512
    1OPC    D2B71107   9.602   2.523   4.699 -0.0555  0.1893 -0.2650
    1OPC    C3B71108   9.262   2.682   4.898 -0.2244  0.1098  0.1558
    1OPC    C4B71109   8.984   2.821   5.067 -0.0546 -0.3617 -0.0019
    1OPC    NC371110  17.147  29.045   3.754 -0.1709 -0.1462  0.5803
    1OPC    PO471111  16.920  28.626   3.582 -0.2966  0.2070  0.1063
    1OPC    GL171112  16.766  28.850   3.975 -0.2371 -0.1107  0.0943
    1OPC    GL271113  16.867  28.872   4.210 -0.0049  0.0818 -0.2245
    1OPC    C1B71114  16.886  29.120   4.561  0.1687  0.0147 -0.1509
    1OPC    D2B71115  17.040  29.181   4.955  0.0099 -0.1190  0.0908
    1OPC    C3B71116  17.280  29.312   5.324  0.2066 -0.1412 -0.2281
    1OPC    C4B71117  17.720  29.374   5.458  0.1937 -0.0613  0.1075
    1OPC    NC371118   1.019   1.137   2.799 -0.0888 -0.1371  0.1050
    1OPC    PO471119   1.388   1.101   2.961  0.2893  0.0339  0.1184
    1OPC    GL171120   1.209   1.141   3.289 -0.1749 -0.0734  0.1207
    1OPC    GL271121   1.112   1.194   3.509 -0.2343 -0.1966 -0.0897
    1OPC    C1B71122   1.124   1.154   3.871 -0.2463 -0.1711 -0.2627
    1OPC    D2B71123   1.323   1.349   4.160 -0.2257 -0.0908  0.2870
    1OPC    C3B71124   1.290   1.505   4.582  0.1434 -0.3969  0.1795
    1OPC    C4B71125   1.194   1.445   5.108 -0.0911  0.2328  0.1792
    1OPC    NC371126  24.975  11.549   2.414 -0.0463 -0.0688  0.1106
    1OPC    PO471127  24.600  11.412   2.445  0.1000 -0.0492 -0.1102
    1OPC    GL171128  24.462  11.656   2.747  0.1049 -0.1626  0.0128
    1OPC    GL271129  24.286  11.923   2.686 -0.2773  0.3630 -0.1857
    1OPC    C1B71130  24.416  12.356   2.991  0.1932 -0.0048 -0.2691
    1OPC    D2B71131  24.655  12.660   3.001  0.0035  0.0127 -0.0408
    1OPC    C3B71132  24.699  13.020   3.175  0.3353 -0.1807 -0.3309
    1OPC    C4B71133  24.666  13.347   3.559 -0.1352 -0.0115  0.0408
    1OPC    NC371134  20.729   3.231   2.466 -0.0898  0.1407  0.3541
    1OPC    PO471135  20.253   3.177   2.614 -0.2538 -0.0696 -0.0807
    1OPC    GL171136  20.412   3.209   3.035 -0.1465  0.0010 -0.1273
    1OPC    GL271137  20.662   3.376   3.319  0.0582  0.0841  0.5328
    1OPC    C1B71138  20.764   3.462   3.721  0.0807 -0.1599  0.2119
    1OPC    D2B71139  20.828   3.765   3.952 -0.1868 -0.1709 -0.0474
    1OPC    C3B71140  21.151   4.019   4.173  0.1850  0.2272  0.1345
    1OPC    C4B71141  21.308   4.393   4.318  0.1060  0.0361 -0.0167
    1OPC    NC371142  23.179  15.187   2.116  0.1154 -0.0230 -0.2079
    1OPC    PO471143  22.948  15.488   1.876  0.0373 -0.1600  0.1613
    1OPC    GL171144  22.891  15.528   2.399 -0.2422  0.1936 -0.1670
    1OPC    GL271145  22.712  15.712   2.598 -0.2587 -0.1768  0.0567
    1OPC    C1B71146  22.569  16.102   2.843 -0.0165 -0.0268 -0.0304
    1OPC    D2B71147  22.768  16.150   3.261 -0.0809  0.0848  0.0058
    1OPC    C3B71148  22.716  16.524   3.451  0.0715 -0.0017  0.0384
    1OPC    C4B71149  22.954  16.858   3.492 -0.2040  0.1579 -0.0200
    1OPC    NC371150  28.518  16.092   2.426 -0.0607  0.0777 -0.0669
    1OPC    PO471151  28.634  16.418   2.335  0.2112  0.1003  0.0639
    1OPC    GL171152  28.837  16.378   2.740 -0.0041 -0.0831 -0.1154
    1OPC    GL271153  28.832  16.298   3.011  0.0538 -0.1488 -0.1086
    1OPC    C1B71154  28.609  16.276   3.371 -0.1500  0.0178 -0.0404
    1OPC    D2B71155  28.609  16.412   3.798 -0.1552  0.1899  0.3756
    1OPC    C3B71156  28.215  16.362   4.004  0.0145  0.0979 -0.2686
    1OPC    C4B71157  27.751  16.177   3.841  0.1002  0.0290  0.0424
    1OPC    NC371158  28.769   4.975   2.618 -0.3929 -0.1469  0.0823
    1OPC    PO471159  29.090   5.346   2.536  0.1996  0.2177  0.4166
    1OPC    GL171160  29.097   5.476   2.925 -0.0034  0.0676 -0.1696
    1OPC    GL271161  29.204   5.717   3.092 -0.3877 -0.0004 -0.2313
    1OPC    C1B71162  29.426   5.882   3.435  0.0057 -0.0011  0.1939
    1OPC    D2B71163  29.429   5.959   3.848 -0.0290 -0.1221 -0.0668
    1OPC    C3B71164  29.182   6.121   4.127  0.2083  0.1166  0.0833
    1OPC    C4B71165  28.942   6.312   4.518  0.2665  0.1134 -0.0795
    1OPC    NC371166   9.159  26.648   3.154 -0.0546 -0.1956 -0.0264
    1OPC    PO471167   8.952  26.907   3.568  0.0433 -0.0512  0.1308
    1OPC    GL171168   9.138  27.108   3.999 -0.2296 -0.1567  0.0749
    1OPC    GL271169   9.156  27.411   4.182  0.3696  0.0082 -0.0176
    1OPC    C1B71170   9.133  27.641   4.461  0.2716  0.1110  0.0004
    1OPC    D2B71171   8.961  27.770   4.778 -0.1612  0.0301  0.1535
    1OPC    C3B71172   9.009  28.271   4.939 -0.0412 -0.0799  0.0044
    1OPC    C4B71173   8.847  28.630   4.875  0.0438 -0.2521  0.0219
    1OPC    NC371174  28.960   8.863   2.722 -0.2734 -0.3470 -0.0843
    1OPC    PO471175  29.253   8.817   2.503 -0.0870 -0.1986  0.0189
    1OPC    GL171176  29.610   8.969   2.754  0.0101  0.1099 -0.1776
    1OPC    GL271177  29.768   9.247   2.954  0.3260  0.0495 -0.0444
    1OPC    C1B71178  29.772   9.361   3.337 -0.0694  0.0084  0.1664
    1OPC    D2B71179  29.466   9.640   3.469  0.0510  0.0936  0.0421
    1OPC    C3B71180  29.479   9.987   3.820 -0.0562  0.0746 -0.0844
    1OPC    C4B71181  29.526  10.575   3.870 -0.2163  0.0749  0.1843
    1OPC    NC371182   7.760   7.224   3.360  0.1171 -0.3641 -0.2950
    1OPC    PO471183   7.766   6.781   3.214  0.0513 -0.3691  0.0071
    1OPC    GL171184   7.804   6.719   3.560 -0.3523 -0.0611 -0.0257
    1OPC    GL271185   7.707   6.735   3.879 -0.0627  0.0353 -0.0601
    1OPC    C1B71186   7.517   6.647   4.195 -0.3701 -0.0946  0.3258
    1OPC    D2B71187   7.371   6.506   4.664  0.0697 -0.0652  0.0603
    1OPC    C3B71188   7.171   6.425   5.061 -0.0287  0.0058  0.2051
    1OPC    C4B71189   7.224   6.428   5.545 -0.2023  0.1172  0.1148
    1OPC    NC371190  16.835   9.637   2.961  0.1798 -0.2551 -0.0846
    1OPC    PO471191  16.953  10.055   2.686  0.1929  0.4016 -0.0291
    1OPC    GL171192  16.945  10.060   3.170  0.1112 -0.1815  0.1594
    1OPC    GL271193  17.098   9.999   3.532 -0.4238 -0.0826 -0.2732
    1OPC    C1B71194  17.133  10.135   4.001  0.1486  0.2085 -0.2922
    1OPC    D2B71195  16.941   9.948   4.310  0.0153  0.2669  0.1263
    1OPC    C3B71196  17.063   9.734   4.707 -0.1115  0.0228 -0.0137
    1OPC    C4B71197  17.454   9.400   4.757 -0.0648  0.1715  0.0353
    1OPC    NC371198   4.755   3.098   2.645  0.2330  0.2711 -0.0881
    1OPC    PO471199   4.308   2.909   2.616  0.1045  0.0397 -0.3782
    1OPC    GL171200   4.299   2.896   3.077 -0.2752  0.0225 -0.2984
    1OPC    GL271201   4.395   2.964   3.430 -0.2482  0.2438  0.2905
    1OPC    C1B71202   4.389   3.052   3.871 -0.2036 -0.3257  0.1415
    1OPC    D2B71203   4.463   3.095   4.225 -0.0805 -0.4452 -0.2899
    1OPC    C3B71204   4.154   3.304   4.423  0.0330 -0.0251  0.2040
    1OPC    C4B71205   4.213   3.474   4.880  0.1466  0.2892 -0.0568
    1OPC    NC371206  25.862  15.341   1.689 -0.3069  0.1997  0.1168
    1OPC    PO471207  25.727  15.779   1.886 -0.0545  0.0677 -0.0601
    1OPC    GL171208  26.034  15.771   2.259  0.1697 -0.0122  0.1932
    1OPC    GL271209  26.098  15.743   2.537  0.0543  0.2033 -0.0627
    1OPC    C1B71210  26.374  15.709   2.908 -0.0104  0.2051  0.1739
    1OPC    D2B71211  26.521  15.883   3.383 -0.0022  0.1051  0.4164
    1OPC    C3B71212  26.716  15.853   3.801 -0.1757  0.0957  0.3006
    1OPC    C4B71213  26.925  16.276   3.908  0.0912  0.0322  0.2365
    1OPC    NC371214  23.113  21.199   3.098 -0.1780 -0.1492 -0.1045
    1OPC    PO471215  23.392  21.262   3.491  0.0501  0.1468  0.0050
    1OPC    GL171216  23.456  21.463   3.836  0.1340 -0.0864  0.1279
    1OPC    GL271217  23.467  21.363   4.212  0.3008 -0.1158 -0.0124
    1OPC    C1B71218  23.633  21.362   4.674  0.0485  0.0885 -0.1750
    1OPC    D2B71219  23.967  21.212   4.939  0.0845  0.1062  0.1517
    1OPC    C3B71220  24.142  20.863   5.007  0.1375 -0.0712  0.1472
    1OPC    C4B71221  24.070  20.571   5.333 -0.0621 -0.1655  0.1512
    1OPC    NC371222  26.230  19.725   2.589 -0.2171 -0.2708  0.0890
    1OPC    PO471223  25.855  19.887   2.757 -0.0714  0.0370 -0.1333
    1OPC    GL171224  26.120  19.736   3.111 -0.0204 -0.1420  0.0008
    1OPC    GL271225  25.967  19.781   3.422 -0.2505  0.0718  0.0808
    1OPC    C1B71226  26.069  19.988   3.745  0.1393 -0.0786  0.1265
    1OPC    D2B71227  25.994  20.112   4.172 -0.1342 -0.1036 -0.0180
    1OPC    C3B71228  26.210  20.425   4.528 -0.1411  0.0832  0.0954
    1OPC    C4B71229  26.653  20.434   4.612  0.0858 -0.1987  0.2721
    1OPC    NC371230  20.506   1.196   2.505  0.1571  0.3057 -0.2684
    1OPC    PO471231  20.848   1.157   2.702 -0.4886 -0.1390  0.0761
    1OPC    GL171232  20.833   0.884   3.140 -0.1386  0.0685 -0.0802
    1OPC    GL271233  20.694   0.719   3.442 -0.2038  0.4247  0.0725
    1OPC    C1B71234  20.624   0.621   3.918  0.2894  0.1587 -0.1906
    1OPC    D2B71235  20.758   0.541   4.386 -0.0637 -0.1748  0.0106
    1OPC    C3B71236  20.942   0.879   4.678  0.3305 -0.1762 -0.1375
    1OPC    C4B71237  20.933   1.030   5.081  0.0423 -0.3322 -0.1965
    1OPC    NC371238   7.715   0.574   2.313  0.1571  0.1253 -0.1107
    1OPC    PO471239   7.382   0.506   2.753 -0.4126  0.0117  0.2329
    1OPC    GL171240   7.506   0.289   3.141 -0.1158 -0.1324 -0.1344
    1OPC    GL271241   7.557   0.152   3.405 -0.3758  0.1970  0.2000
    1OPC    C1B71242   7.688   0.197   3.756 -0.0905  0.3365  0.0681
    1OPC    D2B71243   7.767   0.048   4.071  0.0493  0.1390  0.0201
    1OPC    C3B71244   7.602  -0.021   4.320  0.2003 -0.2037  0.4341
    1OPC    C4B71245   7.137  -0.106   4.355 -0.2232  0.1801 -0.0320
    1OPC    NC371246  14.333   5.861   3.887 -0.0008  0.1301 -0.1604
    1OPC    PO471247  14.642   5.503   3.911  0.2751  0.1201 -0.1271
    1OPC    GL171248  14.709   5.265   4.312  0.0604  0.1597  0.0483
    1OPC    GL271249  14.672   5.001   4.588  0.0605 -0.0859 -0.1690
    1OPC    C1B71250  14.630   4.612   4.962 -0.0418  0.0507 -0.1191
    1OPC    D2B71251  14.768   4.619   5.417 -0.0987 -0.2037  0.2552
    1OPC    C3B71252  15.038   4.867   5.462 -0.1080 -0.0750  0.2850
    1OPC    C4B71253  15.513   5.034   5.640 -0.0599  0.1948 -0.1461
    1OPC    NC371254   0.973  11.534   2.792  0.0112 -0.2136 -0.0658
    1OPC    PO471255   0.605  11.852   2.706 -0.0056  0.0510  0.1823
    1OPC    GL171256   0.899  12.041   2.980  0.0496  0.2872  0.0806
    1OPC    GL271257   0.800  12.133   3.221 -0.1566 -0.0999 -0.1428
    1OPC    C1B71258   0.555  12.443   3.495  0.0904 -0.2319 -0.0886
    1OPC    D2B71259   0.747  12.593   3.830 -0.3412 -0.0118 -0.0585
    1OPC    C3B71260   1.042  12.396   4.134  0.4038 -0.1806  0.0514
    1OPC    C4B71261   1.246  12.067   4.233 -0.1682  0.0858 -0.0921
    1OPC    NC371262  12.821   0.064   3.611  0.0119 -0.0006 -0.1252
    1OPC    PO471263  12.688  -0.249   3.908 -0.2224  0.0312  0.1214
    1OPC    GL171264  12.762   0.116   4.158  0.0151  0.0864  0.0939
    1OPC    GL271265  12.794   0.158   4.531 -0.4102 -0.0081 -0.4920
    1OPC    C1B71266  12.909   0.250   5.016  0.2124  0.1941  0.0071
    1OPC    D2B71267  12.886   0.125   5.472 -0.0184  0.1998  0.0038
    1OPC    C3B71268  12.572   0.038   5.806 -0.1995 -0.2845  0.4843
    1OPC    C4B71269  12.128   0.294   5.980 -0.0824 -0.0402  0.1981
    1OPC    NC371270  26.006  10.655   2.476  0.3021  0.2179 -0.0056
    1OPC    PO471271  25.539  10.834   2.412 -0.0369  0.0170  0.0060
    1OPC    GL171272  25.482  10.896   2.816 -0.0310  0.2110 -0.0054
    1OPC    GL271273  25.488  11.212   3.056  0.3182 -0.3062 -0.1306
    1OPC    C1B71274  25.674  11.329   3.461 -0.3584 -0.2374  0.1410
    1OPC    D2B71275  25.853  11.210   3.894 -0.1026 -0.0843  0.2680
    1OPC    C3B71276  25.954  10.839   4.165 -0.0770 -0.0253  0.2606
    1OPC    C4B71277  25.601  10.545   4.195  0.0375 -0.2410 -0.1330
    1OPC    NC371278  17.875   8.591   3.015  0.2320  0.0600 -0.2814
    1OPC    PO471279  17.985   8.952   2.760 -0.2175 -0.0231  0.0818
    1OPC    GL171280  18.057   9.212   3.131 -0.1457  0.1182  0.1784
    1OPC    GL271281  18.387   9.194   3.306  0.2429  0.1797 -0.4206
    1OPC    C1B71282  18.580   9.390   3.591  0.2738 -0.0436  0.3586
    1OPC    D2B71283  18.621   9.655   4.028 -0.1564 -0.0263  0.4393
    1OPC    C3B71284  18.225   9.772   4.365  0.0914 -0.0988  0.0537
    1OPC    C4B71285  17.916   9.730   4.671 -0.0213 -0.3322  0.1783
    1OPC    NC371286  24.631  28.868   2.007 -0.0711  0.0554 -0.0678
    1OPC    PO471287  24.435  28.551   2.275  0.0874 -0.0871  0.1607
    1OPC    GL171288  24.600  28.198   2.525 -0.0052  0.0412 -0.1506
    1OPC    GL271289  24.534  28.186   2.855  0.1758 -0.4828  0.1502
    1OPC    C1B71290  24.340  28.200   3.184  0.5604  0.2285  0.4029
    1OPC    D2B71291  24.076  27.848   3.444 -0.2341 -0.0443  0.2626
    1OPC    C3B71292  24.172  27.778   3.899  0.2149  0.0491 -0.1445
    1OPC    C4B71293  24.313  27.545   4.178 -0.0079 -0.1538 -0.0157
    1OPC    NC371294   4.662  21.265   2.173 -0.0497  0.1647  0.2177
    1OPC    PO471295   4.590  21.610   1.973  0.1954  0.0904 -0.0375
    1OPC    GL171296   4.528  21.787   2.380 -0.0363  0.1257  0.2106
    1OPC    GL271297   4.713  21.819   2.687  0.0719  0.4193 -0.1920
    1OPC    C1B71298   5.112  21.653   2.802 -0.0264 -0.2574 -0.1140
    1OPC    D2B71299   5.447  21.878   3.023 -0.0968  0.1088  0.2709
    1OPC    C3B71300   5.282  22.270   3.303  0.2425  0.0648 -0.0798
    1OPC    C4B71301   5.415  22.701   3.293 -0.1205 -0.0657 -0.1754
    1OPC    NC371302   4.935  13.674   2.670  0.3892 -0.0772  0.0751
    1OPC    PO471303   4.759  14.105   2.455 -0.0654 -0.0596 -0.1258
    1OPC    GL171304   4.710  13.993   2.936  0.0011  0.0525  0.0998
    1OPC    GL271305   4.914  13.878   3.163 -0.1277 -0.0159 -0.0758
    1OPC    C1B71306   4.872  13.698   3.473  0.6241 -0.1493  0.3673
    1OPC    D2B71307   5.143  13.583   3.815  0.1677  0.2140 -0.0725
    1OPC    C3B71308   5.104  13.529   4.192 -0.0803 -0.0508  0.0782
    1OPC    C4B71309   4.995  13.334   4.540 -0.1888 -0.1687  0.1098
    1OPC    NC371310   3.141  11.608   2.633 -0.0661  0.0128  0.1553
    1OPC    PO471311   3.490  11.999   2.644  0.4400 -0.2575 -0.4999
    1OPC    GL171312   3.544  11.577   2.835  0.1339 -0.0953  0.2803
    1OPC    GL271313   3.434  11.468   3.033 -0.0500  0.2939  0.1695
    1OPC    C1B71314   3.425  11.643   3.437  0.1288 -0.0258  0.0258
    1OPC    D2B71315   3.372  11.417   3.851 -0.2402  0.1188 -0.0718
    1OPC    C3B71316   3.243  10.940   3.881 -0.1240 -0.2424  0.3774
    1OPC    C4B71317   3.069  10.557   4.198 -0.0638  0.0421  0.1393
    1OPC    NC371318  23.183  18.420   2.114  0.0731  0.1418  0.1992
    1OPC    PO471319  23.372  18.632   2.491  0.0663  0.1939 -0.1602
    1OPC    GL171320  23.590  18.818   2.867  0.2875  0.0262 -0.1590
    1OPC    GL271321  23.666  18.677   3.142 -0.1330 -0.5208 -0.1532
    1OPC    C1B71322  23.538  18.527   3.601 -0.0284 -0.0034 -0.0214
    1OPC    D2B71323  23.631  18.368   4.025 -0.0918 -0.0734 -0.4493
    1OPC    C3B71324  23.403  18.319   4.449 -0.4425  0.0597 -0.4681
    1OPC    C4B71325  23.642  18.198   4.911  0.4721 -0.1448 -0.0040
    1OPC    NC371326   3.244  17.278   2.502 -0.1111 -0.0506 -0.0348
    1OPC    PO471327   3.376  17.661   2.699 -0.0266  0.0956 -0.1172
    1OPC    GL171328   3.118  17.401   3.031  0.2442  0.0530  0.2947
    1OPC    GL271329   3.113  17.150   3.278  0.1805  0.1159 -0.0259
    1OPC    C1B71330   3.025  17.169   3.707 -0.1549  0.1495  0.2622
    1OPC    D2B71331   2.760  17.389   3.984 -0.1873  0.1625 -0.0385
    1OPC    C3B71332   2.391  17.439   4.170  0.0515  0.3211  0.1413
    1OPC    C4B71333   2.101  17.356   4.556  0.2944  0.1904 -0.0411
    1OPC    NC371334   8.606  11.056   2.408 -0.0179 -0.0847 -0.1792
    1OPC    PO471335   8.986  11.221   2.555  0.0425  0.0118 -0.0254
    1OPC    GL171336   8.849  11.549   2.885  0.2293  0.0525 -0.1850
    1OPC    GL271337   8.628  11.611   3.120  0.2779  0.0887  0.0989
    1OPC    C1B71338   8.410  11.581   3.492  0.3435 -0.1014  0.0853
    1OPC    D2B71339   8.036  11.545   3.651  0.0768  0.1136  0.0210
    1OPC    C3B71340   7.995  11.702   3.940 -0.2287 -0.1506  0.0544
    1OPC    C4B71341   7.905  11.941   4.348 -0.1574 -0.2662  0.0028
    1OPC    NC371342  22.552  25.500   3.276  0.2657 -0.1432  0.2508
    1OPC    PO471343  22.933  25.642   3.312 -0.0131 -0.0014  0.0495
    1OPC    GL171344  23.179  25.962   3.392  0.3684  0.0407  0.2941
    1OPC    GL271345  23.153  26.093   3.651 -0.1784  0.0839  0.0514
    1OPC    C1B71346  23.174  26.002   4.163 -0.1679  0.1174 -0.1467
    1OPC    D2B71347  23.252  25.917   4.658 -0.0943  0.1206 -0.2639
    1OPC    C3B71348  23.534  26.224   4.759 -0.0420  0.0570 -0.1011
    1OPC    C4B71349  23.775  26.578   4.829  0.1652  0.5180  0.0078
    1OPC    NC371350   1.636   3.799   2.676 -0.0375  0.1741  0.3420
    1OPC    PO471351   1.629   4.166   2.477 -0.0938  0.1813  0.1211
    1OPC    GL171352   1.238   4.338   2.883  0.0213 -0.3036 -0.0674
    1OPC    GL271353   1.279   4.554   3.168  0.1300  0.1310 -0.0411
    1OPC    C1B71354   1.447   4.830   3.419  0.1830 -0.0280 -0.1060
    1OPC    D2B71355   1.596   4.924   3.842 -0.1080  0.1838 -0.0771
    1OPC    C3B71356   1.472   5.331   4.090  0.3237 -0.3411 -0.1175
    1OPC    C4B71357   1.027   5.483   4.342  0.1864  0.3237  0.5248
    1OPC    NC371358  26.874   3.768   2.531 -0.0972 -0.1617  0.0836
    1OPC    PO471359  26.481   4.103   2.714  0.2233 -0.1655  0.1380
    1OPC    GL171360  26.593   3.705   2.906 -0.0755  0.0868  0.0504
    1OPC    GL271361  26.892   3.741   3.077 -0.1035 -0.2462  0.2020
    1OPC    C1B71362  27.267   3.802   3.384  0.1647  0.2701 -0.0309
    1OPC    D2B71363  27.297   3.907   3.874 -0.3522  0.0276 -0.1819
    1OPC    C3B71364  27.214   3.576   4.245  0.3710 -0.0947  0.1259
    1OPC    C4B71365  26.787   3.261   4.234 -0.5114  0.1071  0.1903
    1OPC    NC371366  14.166   4.145   3.905 -0.2175  0.1406  0.1342
    1OPC    PO471367  13.807   4.468   3.789  0.1987 -0.0632 -0.2848
    1OPC    GL171368  13.932   4.360   4.231  0.0030  0.1158  0.1535
    1OPC    GL271369  14.128   4.454   4.444  0.1953  0.0837  0.0674
    1OPC    C1B71370  14.197   4.356   4.823  0.0818 -0.0044 -0.0290
    1OPC    D2B71371  14.434   4.204   5.130  0.0232 -0.2101 -0.2544
    1OPC    C3B71372  14.466   3.850   5.389  0.1690 -0.0014 -0.0921
    1OPC    C4B71373  14.171   3.654   5.769  0.0132  0.0188  0.1831
    1OPC    NC371374  24.253   0.126   1.854 -0.1506 -0.0152  0.1460
    1OPC    PO471375  23.823  -0.025   1.889  0.0925  0.0840 -0.1634
    1OPC    GL171376  24.033  -0.172   2.457  0.0353  0.0062  0.1816
    1OPC    GL271377  24.199  -0.202   2.768 -0.5075 -0.1531 -0.0997
    1OPC    C1B71378  24.353  -0.058   3.269 -0.0139  0.1548 -0.1109
    1OPC    D2B71379  24.224   0.034   3.682  0.1989 -0.0784  0.0169
    1OPC    C3B71380  24.030   0.388   3.800 -0.1339 -0.2808 -0.0484
    1OPC    C4B71381  23.853   0.637   4.228 -0.0094  0.2753  0.1789
    1OPC    NC371382   7.247  27.952   3.224  0.1519  0.3620  0.5431
    1OPC    PO471383   7.592  28.320   3.240  0.0653  0.1458 -0.0529
    1OPC    GL171384   7.405  28.179   3.625 -0.1355  0.0538  0.0593
    1OPC    GL271385   7.351  27.854   3.866 -0.1857  0.0902 -0.1439
    1OPC    C1B71386   7.005  27.693   4.071 -0.1846  0.0779 -0.1751
    1OPC    D2B71387   6.839  27.612   4.330  0.3144 -0.1886  0.1463
    1OPC    C3B71388   6.793  27.879   4.670 -0.0245  0.1829  0.4124
    1OPC    C4B71389   6.807  28.247   4.937 -0.3099 -0.3102  0.1148
    1OPC    NC371390   0.872  25.185   2.833  0.0337 -0.3648 -0.3144
    1OPC    PO471391   1.192  25.144   3.154  0.0920  0.3055  0.0486
    1OPC    GL171392   1.215  25.399   3.510  0.0000  0.0297  0.0498
    1OPC    GL271393   1.281  25.610   3.702 -0.1077  0.0476  0.0548
    1OPC    C1B71394   1.063  25.977   3.982  0.2321  0.0491  0.0606
    1OPC    D2B71395   0.711  25.851   4.340 -0.0221 -0.2569  0.1358
    1OPC    C3B71396   1.009  25.593   4.665  0.1543  0.2849  0.0219
    1OPC    C4B71397   0.944  25.183   4.927  0.0070 -0.4551  0.2180
    1OPC    NC371398  27.695   3.161   2.980 -0.0581  0.1172  0.0933
    1OPC    PO471399  27.744   3.528   2.757  0.2502 -0.1680 -0.3144
    1OPC    GL171400  27.705   3.597   3.163  0.2495  0.3398  0.1946
    1OPC    GL271401  27.910   3.461   3.357 -0.3072 -0.0360  0.0521
    1OPC    C1B71402  28.139   3.427   3.753  0.0978  0.3728  0.1423
    1OPC    D2B71403  28.460   3.592   3.934  0.0109  0.1114 -0.1324
    1OPC    C3B71404  28.756   3.865   3.647  0.1795  0.0337  0.0721
    1OPC    C4B71405  28.894   4.228   3.449 -0.2154 -0.0579  0.1238
    1OPC    NC371406  21.624  15.324   1.560 -0.0949 -0.1319 -0.2012
    1OPC    PO471407  21.920  15.285   1.859 -0.0755 -0.0353 -0.0057
    1OPC    GL171408  21.789  15.562   2.189  0.1815 -0.0242 -0.0220
    1OPC    GL271409  21.815  15.470   2.542 -0.2481 -0.1069 -0.2953
    1OPC    C1B71410  21.846  15.463   2.873  0.1621 -0.0677  0.0454
    1OPC    D2B71411  21.915  15.391   3.298 -0.0362 -0.2202 -0.0547
    1OPC    C3B71412  22.018  15.513   3.642  0.3418 -0.1284  0.0876
    1OPC    C4B71413  22.298  15.709   3.910 -0.2033 -0.1403 -0.0497
    1OPC    NC371414  13.771   7.138   3.601 -0.2399 -0.2990  0.1532
    1OPC    PO471415  14.006   7.517   3.585 -0.0830 -0.2792 -0.0479
    1OPC    GL171416  14.392   7.774   3.741  0.1822 -0.0877 -0.1663
    1OPC    GL271417  14.624   7.930   3.949 -0.1210  0.1535  0.0824
    1OPC    C1B71418  14.754   8.014   4.408 -0.0708  0.2109  0.1555
    1OPC    D2B71419  14.760   8.194   4.798  0.3603 -0.0645 -0.2635
    1OPC    C3B71420  15.034   8.280   5.082  0.0689 -0.1488  0.0139
    1OPC    C4B71421  15.099   8.275   5.495  0.1838 -0.1887  0.1604
  29.36252  29.36252   9.69109
